
Linearized model: Predictions were generated on 14-Jan-2026 at 23:20:16 using OpenFAST, compiled on Jan  8 2026 at 20:13:41 as a 64-bit application using double precision at commit HEAD-HASH-NOTFOUND
 linked with  NWTC Subroutine Library; ElastoDyn; BeamDyn

Description from the FAST input file: Modal damping for beam rotating, but still at initial position

Simulation information:
   Simulation time:                     0.0000 s
   Rotor Speed:                         1.0472 rad/s
   Azimuth:                             0.0000 rad
   Wind Speed:                          0.0000 m/s
   Number of continuous states:        96
   Number of discrete states:           0
   Number of constraint states:         0
   Number of inputs:                  138
   Number of outputs:                 279
   Jacobians included in this file?   Yes

Order of continuous states:
   Row/Column Operating Point                                                   Rotating Frame? Derivative Order Description
   ---------- ---------------                                                   --------------- ---------------- -----------
          1    0.000000000000E+000                                                     T               2         finite element node 2 (number of elements = 1; element order = 8) translational displacement in X, m
          2    4.196439247194E-035                                                     T               2         finite element node 2 (number of elements = 1; element order = 8) translational displacement in Y, m
          3    1.280783196414E-005                                                     T               2         finite element node 2 (number of elements = 1; element order = 8) translational displacement in Z, m
          4    0.000000000000E+000                                                     T               2         finite element node 2 (number of elements = 1; element order = 8) rotational displacement in X, rad
          5    0.000000000000E+000                                                     T               2         finite element node 2 (number of elements = 1; element order = 8) rotational displacement in Y, rad
          6    0.000000000000E+000                                                     T               2         finite element node 2 (number of elements = 1; element order = 8) rotational displacement in Z, rad
          7    0.000000000000E+000                                                     T               2         finite element node 3 (number of elements = 1; element order = 8) translational displacement in X, m
          8    4.997637212139E-034                                                     T               2         finite element node 3 (number of elements = 1; element order = 8) translational displacement in Y, m
          9    4.376540543741E-005                                                     T               2         finite element node 3 (number of elements = 1; element order = 8) translational displacement in Z, m
         10    0.000000000000E+000                                                     T               2         finite element node 3 (number of elements = 1; element order = 8) rotational displacement in X, rad
         11    0.000000000000E+000                                                     T               2         finite element node 3 (number of elements = 1; element order = 8) rotational displacement in Y, rad
         12    0.000000000000E+000                                                     T               2         finite element node 3 (number of elements = 1; element order = 8) rotational displacement in Z, rad
         13    0.000000000000E+000                                                     T               2         finite element node 4 (number of elements = 1; element order = 8) translational displacement in X, m
         14    1.828078799911E-033                                                     T               2         finite element node 4 (number of elements = 1; element order = 8) translational displacement in Y, m
         15    7.192083882174E-005                                                     T               2         finite element node 4 (number of elements = 1; element order = 8) translational displacement in Z, m
         16    0.000000000000E+000                                                     T               2         finite element node 4 (number of elements = 1; element order = 8) rotational displacement in X, rad
         17    0.000000000000E+000                                                     T               2         finite element node 4 (number of elements = 1; element order = 8) rotational displacement in Y, rad
         18    0.000000000000E+000                                                     T               2         finite element node 4 (number of elements = 1; element order = 8) rotational displacement in Z, rad
         19    0.000000000000E+000                                                     T               2         finite element node 5 (number of elements = 1; element order = 8) translational displacement in X, m
         20    3.964551620761E-033                                                     T               2         finite element node 5 (number of elements = 1; element order = 8) translational displacement in Y, m
         21    1.086821317903E-004                                                     T               2         finite element node 5 (number of elements = 1; element order = 8) translational displacement in Z, m
         22    0.000000000000E+000                                                     T               2         finite element node 5 (number of elements = 1; element order = 8) rotational displacement in X, rad
         23    0.000000000000E+000                                                     T               2         finite element node 5 (number of elements = 1; element order = 8) rotational displacement in Y, rad
         24    0.000000000000E+000                                                     T               2         finite element node 5 (number of elements = 1; element order = 8) rotational displacement in Z, rad
         25    0.000000000000E+000                                                     T               2         finite element node 6 (number of elements = 1; element order = 8) translational displacement in X, m
         26    6.585140619577E-033                                                     T               2         finite element node 6 (number of elements = 1; element order = 8) translational displacement in Y, m
         27    1.326371564154E-004                                                     T               2         finite element node 6 (number of elements = 1; element order = 8) translational displacement in Z, m
         28    0.000000000000E+000                                                     T               2         finite element node 6 (number of elements = 1; element order = 8) rotational displacement in X, rad
         29    0.000000000000E+000                                                     T               2         finite element node 6 (number of elements = 1; element order = 8) rotational displacement in Y, rad
         30    0.000000000000E+000                                                     T               2         finite element node 6 (number of elements = 1; element order = 8) rotational displacement in Z, rad
         31    0.000000000000E+000                                                     T               2         finite element node 7 (number of elements = 1; element order = 8) translational displacement in X, m
         32    9.013299494334E-033                                                     T               2         finite element node 7 (number of elements = 1; element order = 8) translational displacement in Y, m
         33    1.488017311798E-004                                                     T               2         finite element node 7 (number of elements = 1; element order = 8) translational displacement in Z, m
         34    0.000000000000E+000                                                     T               2         finite element node 7 (number of elements = 1; element order = 8) rotational displacement in X, rad
         35    0.000000000000E+000                                                     T               2         finite element node 7 (number of elements = 1; element order = 8) rotational displacement in Y, rad
         36    0.000000000000E+000                                                     T               2         finite element node 7 (number of elements = 1; element order = 8) rotational displacement in Z, rad
         37    0.000000000000E+000                                                     T               2         finite element node 8 (number of elements = 1; element order = 8) translational displacement in X, m
         38    1.075459185868E-032                                                     T               2         finite element node 8 (number of elements = 1; element order = 8) translational displacement in Y, m
         39    1.528911191876E-004                                                     T               2         finite element node 8 (number of elements = 1; element order = 8) translational displacement in Z, m
         40    0.000000000000E+000                                                     T               2         finite element node 8 (number of elements = 1; element order = 8) rotational displacement in X, rad
         41    0.000000000000E+000                                                     T               2         finite element node 8 (number of elements = 1; element order = 8) rotational displacement in Y, rad
         42    0.000000000000E+000                                                     T               2         finite element node 8 (number of elements = 1; element order = 8) rotational displacement in Z, rad
         43    0.000000000000E+000                                                     T               2         finite element node 9 (number of elements = 1; element order = 8) translational displacement in X, m
         44    1.155165926781E-032                                                     T               2         finite element node 9 (number of elements = 1; element order = 8) translational displacement in Y, m
         45    1.523110291307E-004                                                     T               2         finite element node 9 (number of elements = 1; element order = 8) translational displacement in Z, m
         46    0.000000000000E+000                                                     T               2         finite element node 9 (number of elements = 1; element order = 8) rotational displacement in X, rad
         47    0.000000000000E+000                                                     T               2         finite element node 9 (number of elements = 1; element order = 8) rotational displacement in Y, rad
         48    0.000000000000E+000                                                     T               2         finite element node 9 (number of elements = 1; element order = 8) rotational displacement in Z, rad
         49    0.000000000000E+000                                                     T               2         First time derivative of finite element node 2 (number of elements = 1; element order = 8) translational displacement in X, m/s
         50   -5.248672498938E+000                                                     T               2         First time derivative of finite element node 2 (number of elements = 1; element order = 8) translational displacement in Y, m/s
         51    4.394500903406E-035                                                     T               2         First time derivative of finite element node 2 (number of elements = 1; element order = 8) translational displacement in Z, m/s
         52    1.047197551197E+000                                                     T               2         First time derivative of finite element node 2 (number of elements = 1; element order = 8) rotational displacement in X, rad/s
         53    0.000000000000E+000                                                     T               2         First time derivative of finite element node 2 (number of elements = 1; element order = 8) rotational displacement in Y, rad/s
         54    0.000000000000E+000                                                     T               2         First time derivative of finite element node 2 (number of elements = 1; element order = 8) rotational displacement in Z, rad/s
         55    0.000000000000E+000                                                     T               2         First time derivative of finite element node 3 (number of elements = 1; element order = 8) translational displacement in X, m/s
         56   -1.690253271048E+001                                                     T               2         First time derivative of finite element node 3 (number of elements = 1; element order = 8) translational displacement in Y, m/s
         57    5.233513450321E-034                                                     T               2         First time derivative of finite element node 3 (number of elements = 1; element order = 8) translational displacement in Z, m/s
         58    1.047197551197E+000                                                     T               2         First time derivative of finite element node 3 (number of elements = 1; element order = 8) rotational displacement in X, rad/s
         59    0.000000000000E+000                                                     T               2         First time derivative of finite element node 3 (number of elements = 1; element order = 8) rotational displacement in Y, rad/s
         60    0.000000000000E+000                                                     T               2         First time derivative of finite element node 3 (number of elements = 1; element order = 8) rotational displacement in Z, rad/s
         61    0.000000000000E+000                                                     T               2         First time derivative of finite element node 4 (number of elements = 1; element order = 8) translational displacement in X, m/s
         62   -3.334716692938E+001                                                     T               2         First time derivative of finite element node 4 (number of elements = 1; element order = 8) translational displacement in Y, m/s
         63    1.914359642661E-033                                                     T               2         First time derivative of finite element node 4 (number of elements = 1; element order = 8) translational displacement in Z, m/s
         64    1.047197551197E+000                                                     T               2         First time derivative of finite element node 4 (number of elements = 1; element order = 8) rotational displacement in X, rad/s
         65    0.000000000000E+000                                                     T               2         First time derivative of finite element node 4 (number of elements = 1; element order = 8) rotational displacement in Y, rad/s
         66    0.000000000000E+000                                                     T               2         First time derivative of finite element node 4 (number of elements = 1; element order = 8) rotational displacement in Z, rad/s
         67    0.000000000000E+000                                                     T               2         First time derivative of finite element node 5 (number of elements = 1; element order = 8) translational displacement in X, m/s
         68   -5.235999137149E+001                                                     T               2         First time derivative of finite element node 5 (number of elements = 1; element order = 8) translational displacement in Y, m/s
         69    4.151668748853E-033                                                     T               2         First time derivative of finite element node 5 (number of elements = 1; element order = 8) translational displacement in Z, m/s
         70    1.047197551197E+000                                                     T               2         First time derivative of finite element node 5 (number of elements = 1; element order = 8) rotational displacement in X, rad/s
         71    0.000000000000E+000                                                     T               2         First time derivative of finite element node 5 (number of elements = 1; element order = 8) rotational displacement in Y, rad/s
         72    0.000000000000E+000                                                     T               2         First time derivative of finite element node 5 (number of elements = 1; element order = 8) rotational displacement in Z, rad/s
         73    0.000000000000E+000                                                     T               2         First time derivative of finite element node 6 (number of elements = 1; element order = 8) translational displacement in X, m/s
         74   -7.137280240291E+001                                                     T               2         First time derivative of finite element node 6 (number of elements = 1; element order = 8) translational displacement in Y, m/s
         75    6.895943131106E-033                                                     T               2         First time derivative of finite element node 6 (number of elements = 1; element order = 8) translational displacement in Z, m/s
         76    1.047197551197E+000                                                     T               2         First time derivative of finite element node 6 (number of elements = 1; element order = 8) rotational displacement in X, rad/s
         77    0.000000000000E+000                                                     T               2         First time derivative of finite element node 6 (number of elements = 1; element order = 8) rotational displacement in Y, rad/s
         78    0.000000000000E+000                                                     T               2         First time derivative of finite element node 6 (number of elements = 1; element order = 8) rotational displacement in Z, rad/s
         79    0.000000000000E+000                                                     T               2         First time derivative of finite element node 7 (number of elements = 1; element order = 8) translational displacement in X, m/s
         80   -8.781742406502E+001                                                     T               2         First time derivative of finite element node 7 (number of elements = 1; element order = 8) translational displacement in Y, m/s
         81    9.438705158668E-033                                                     T               2         First time derivative of finite element node 7 (number of elements = 1; element order = 8) translational displacement in Z, m/s
         82    1.047197551197E+000                                                     T               2         First time derivative of finite element node 7 (number of elements = 1; element order = 8) rotational displacement in X, rad/s
         83    0.000000000000E+000                                                     T               2         First time derivative of finite element node 7 (number of elements = 1; element order = 8) rotational displacement in Y, rad/s
         84    0.000000000000E+000                                                     T               2         First time derivative of finite element node 7 (number of elements = 1; element order = 8) rotational displacement in Z, rad/s
         85    0.000000000000E+000                                                     T               2         First time derivative of finite element node 8 (number of elements = 1; element order = 8) translational displacement in X, m/s
         86   -9.947125614026E+001                                                     T               2         First time derivative of finite element node 8 (number of elements = 1; element order = 8) translational displacement in Y, m/s
         87    1.126218225853E-032                                                     T               2         First time derivative of finite element node 8 (number of elements = 1; element order = 8) translational displacement in Z, m/s
         88    1.047197551197E+000                                                     T               2         First time derivative of finite element node 8 (number of elements = 1; element order = 8) rotational displacement in X, rad/s
         89    0.000000000000E+000                                                     T               2         First time derivative of finite element node 8 (number of elements = 1; element order = 8) rotational displacement in Y, rad/s
         90    0.000000000000E+000                                                     T               2         First time derivative of finite element node 8 (number of elements = 1; element order = 8) rotational displacement in Z, rad/s
         91    0.000000000000E+000                                                     T               2         First time derivative of finite element node 9 (number of elements = 1; element order = 8) translational displacement in X, m/s
         92   -1.047199146194E+002                                                     T               2         First time derivative of finite element node 9 (number of elements = 1; element order = 8) translational displacement in Y, m/s
         93    1.209686929751E-032                                                     T               2         First time derivative of finite element node 9 (number of elements = 1; element order = 8) translational displacement in Z, m/s
         94    1.047197551197E+000                                                     T               2         First time derivative of finite element node 9 (number of elements = 1; element order = 8) rotational displacement in X, rad/s
         95    0.000000000000E+000                                                     T               2         First time derivative of finite element node 9 (number of elements = 1; element order = 8) rotational displacement in Y, rad/s
         96    0.000000000000E+000                                                     T               2         First time derivative of finite element node 9 (number of elements = 1; element order = 8) rotational displacement in Z, rad/s

Order of continuous state derivatives:
   Row/Column Operating Point                                                   Rotating Frame? Derivative Order Description
   ---------- ---------------                                                   --------------- ---------------- -----------
          1    0.000000000000E+000                                                     T               2         First time derivative of finite element node 2 (number of elements = 1; element order = 8) translational displacement in X, m/s
          2   -5.248672498938E+000                                                     T               2         First time derivative of finite element node 2 (number of elements = 1; element order = 8) translational displacement in Y, m/s
          3    4.394500903406E-035                                                     T               2         First time derivative of finite element node 2 (number of elements = 1; element order = 8) translational displacement in Z, m/s
          4    1.047197551197E+000                                                     T               2         First time derivative of finite element node 2 (number of elements = 1; element order = 8) rotational displacement in X, rad/s
          5    0.000000000000E+000                                                     T               2         First time derivative of finite element node 2 (number of elements = 1; element order = 8) rotational displacement in Y, rad/s
          6    0.000000000000E+000                                                     T               2         First time derivative of finite element node 2 (number of elements = 1; element order = 8) rotational displacement in Z, rad/s
          7    0.000000000000E+000                                                     T               2         First time derivative of finite element node 3 (number of elements = 1; element order = 8) translational displacement in X, m/s
          8   -1.690253271048E+001                                                     T               2         First time derivative of finite element node 3 (number of elements = 1; element order = 8) translational displacement in Y, m/s
          9    5.233513450321E-034                                                     T               2         First time derivative of finite element node 3 (number of elements = 1; element order = 8) translational displacement in Z, m/s
         10    1.047197551197E+000                                                     T               2         First time derivative of finite element node 3 (number of elements = 1; element order = 8) rotational displacement in X, rad/s
         11    0.000000000000E+000                                                     T               2         First time derivative of finite element node 3 (number of elements = 1; element order = 8) rotational displacement in Y, rad/s
         12    0.000000000000E+000                                                     T               2         First time derivative of finite element node 3 (number of elements = 1; element order = 8) rotational displacement in Z, rad/s
         13    0.000000000000E+000                                                     T               2         First time derivative of finite element node 4 (number of elements = 1; element order = 8) translational displacement in X, m/s
         14   -3.334716692938E+001                                                     T               2         First time derivative of finite element node 4 (number of elements = 1; element order = 8) translational displacement in Y, m/s
         15    1.914359642661E-033                                                     T               2         First time derivative of finite element node 4 (number of elements = 1; element order = 8) translational displacement in Z, m/s
         16    1.047197551197E+000                                                     T               2         First time derivative of finite element node 4 (number of elements = 1; element order = 8) rotational displacement in X, rad/s
         17    0.000000000000E+000                                                     T               2         First time derivative of finite element node 4 (number of elements = 1; element order = 8) rotational displacement in Y, rad/s
         18    0.000000000000E+000                                                     T               2         First time derivative of finite element node 4 (number of elements = 1; element order = 8) rotational displacement in Z, rad/s
         19    0.000000000000E+000                                                     T               2         First time derivative of finite element node 5 (number of elements = 1; element order = 8) translational displacement in X, m/s
         20   -5.235999137149E+001                                                     T               2         First time derivative of finite element node 5 (number of elements = 1; element order = 8) translational displacement in Y, m/s
         21    4.151668748853E-033                                                     T               2         First time derivative of finite element node 5 (number of elements = 1; element order = 8) translational displacement in Z, m/s
         22    1.047197551197E+000                                                     T               2         First time derivative of finite element node 5 (number of elements = 1; element order = 8) rotational displacement in X, rad/s
         23    0.000000000000E+000                                                     T               2         First time derivative of finite element node 5 (number of elements = 1; element order = 8) rotational displacement in Y, rad/s
         24    0.000000000000E+000                                                     T               2         First time derivative of finite element node 5 (number of elements = 1; element order = 8) rotational displacement in Z, rad/s
         25    0.000000000000E+000                                                     T               2         First time derivative of finite element node 6 (number of elements = 1; element order = 8) translational displacement in X, m/s
         26   -7.137280240291E+001                                                     T               2         First time derivative of finite element node 6 (number of elements = 1; element order = 8) translational displacement in Y, m/s
         27    6.895943131106E-033                                                     T               2         First time derivative of finite element node 6 (number of elements = 1; element order = 8) translational displacement in Z, m/s
         28    1.047197551197E+000                                                     T               2         First time derivative of finite element node 6 (number of elements = 1; element order = 8) rotational displacement in X, rad/s