
Predictions were generated on 14-May-2017 at 12:33:44 using OpenFAST (v8.17.01b-dev, 18-Jan-2017), compiled as a 64-bit application using double precision
 linked with  NWTC Subroutine Library (v2.11.00, 12-Nov-2016); ElastoDyn (v1.04.00a-bjj, 26-Jul-2016)

Description from the FAST input file: FAST Certification Test #14: WindPACT 1.5 MW Baseline with stationary linearization in a vacuum

Time      
(s)       
    0.0000
