
FAST Summary File

Predictions were generated on 08-Aug-2018 at 14:57:41 using OpenFAST, compiled as a 64-bit application using double precision at commit v1.0.0-185-g51ece802-dirty
  compiled with
    NWTC Subroutine Library
    ElastoDyn
    BeamDyn
    InflowWind [not called]
    AeroDyn14 [not called]
    AeroDyn [not called]
    ServoDyn [not called]
    HydroDyn [not called]
    SubDyn [not called]
    ExtPtfm_MCKF [not called]
    MAP [not called]
    FEAMooring [not called]
    MoorDyn [not called]
    OrcaFlexInterface [not called]
    IceFloe [not called]
    IceDyn [not called]


Modeling a land-based turbine
Description from the FAST input file: 
  Free-free beam test case

Interpolation order for input/output time histories: 2 (quadratic)
Number of correction iterations:  1
Number of rows in Jacobian matrix used for coupling ElastoDyn, SubDyn, HydroDyn, OrcaFlex, ExtPtfm_MCKF, and/or BeamDyn:     12


   Requested Time Steps  
  -------------------------------------------------
  Component          Time Step (s)    Subcycles (-)
  -----------------  ---------------  -------------
  FAST (glue code)    1.500000000E-003
  ElastoDyn           1.500000000E-003       1
  BeamDyn             1.500000000E-003       1
  FAST output files   1.500000000E-003       1


   Requested Channels in FAST Output File(s)  
  --------------------------------------------
  Number  Name        Units       Generated by
  ------  ----------  ----------  ------------
       1  Time        (s)         OpenFAST
       2  B1TipTDxr   (m)         BeamDyn
       3  B1TipTDyr   (m)         BeamDyn
       4  B1TipTDzr   (m)         BeamDyn
