
FAST Summary File

Predictions were generated on 12-Jun-2017 at 13:14:18 using OpenFAST (v8.17.01b-dev, 18-Jan-2017), compiled as a 64-bit application using double precision
  compiled with
    NWTC Subroutine Library (v2.11.02, 13-Mar-2017)
    ElastoDyn (v1.04.00a-bjj, 26-Jul-2016)
    BeamDyn (unknown version, unknown date) [not called]
    InflowWind (v3.04.00, 31-Dec-2016)
    AeroDyn14 (unknown version, unknown date) [not called]
    AeroDyn (v15.04.02a, 10-May-2017)
    ServoDyn (v1.06.00a-bjj, 26-Jul-2016)
    HydroDyn (unknown version, unknown date) [not called]
    SubDyn (unknown version, unknown date) [not called]
    ExtPtfm_MCKF (unknown version, unknown date) [not called]
    MAP (unknown version, unknown date) [not called]
    FEAMooring (unknown version, unknown date) [not called]
    MoorDyn (unknown version, unknown date) [not called]
    OrcaFlexInterface (unknown version, unknown date) [not called]
    IceFloe (unknown version, unknown date) [not called]
    IceDyn (unknown version, unknown date) [not called]


Modeling a land-based turbine
Description from the FAST input file: 
  FAST Certification Test #03: AWT-27CR2 with many DOFs with free yaw and steady wind.

Interpolation order for input/output time histories: 2 (quadratic)
Number of correction iterations:  0


   Requested Time Steps  
  -------------------------------------------------
  Component          Time Step (s)    Subcycles (-)
  -----------------  ---------------  -------------
  FAST (glue code)    4.000E-03
  InflowWind          4.000E-03              1
  ElastoDyn           4.000E-03              1
  AeroDyn             4.000E-03              1
  ServoDyn            4.000E-03              1
  FAST output files   2.000E-02              5^-1


   Requested Channels in FAST Output File(s)  
  --------------------------------------------
  Number  Name        Units       Generated by
  ------  ----------  ----------  ------------
       1  Time        (s)         OpenFAST
       2  Wind1VelX   (m/s)       InflowWind
       3  Wind1VelY   (m/s)       InflowWind
       4  Wind1VelZ   (m/s)       InflowWind
       5  Azimuth     (deg)       ElastoDyn
       6  TeetDefl    (deg)       ElastoDyn
       7  RotTeetV    (deg/s)     ElastoDyn
       8  RotTeetA    (deg/s^2)   ElastoDyn
       9  OoPDefl2    (m)         ElastoDyn
      10  IPDefl2     (m)         ElastoDyn
      11  RootMOoP2   (kN·m)      ElastoDyn
      12  RootMIP2    (kN·m)      ElastoDyn
      13  RotTorq     (kN·m)      ElastoDyn
      14  YawBrTDxp   (m)         ElastoDyn
      15  YawBrTDyp   (m)         ElastoDyn
      16  YawBrTAxp   (m/s^2)     ElastoDyn
      17  YawBrTAyp   (m/s^2)     ElastoDyn
      18  NacYaw      (deg)       ElastoDyn
      19  NacYawV     (deg/s)     ElastoDyn
      20  NacYawA     (deg/s^2)   ElastoDyn
      21  LSSGagMys   (kN·m)      ElastoDyn
      22  LSSGagMzs   (kN·m)      ElastoDyn
      23  TwrBsMxt    (kN·m)      ElastoDyn
      24  TwrBsMyt    (kN·m)      ElastoDyn
      25  B1N3VUndx   (m/s)       AeroDyn
      26  B1N3VUndy   (m/s)       AeroDyn
      27  B1N3VUndz   (m/s)       AeroDyn
      28  B1N3VDisx   (m/s)       AeroDyn
      29  B1N3VDisy   (m/s)       AeroDyn
      30  B1N3VDisz   (m/s)       AeroDyn
      31  B1N3STVx    (m/s)       AeroDyn
      32  B1N3STVy    (m/s)       AeroDyn
      33  B1N3STVz    (m/s)       AeroDyn
