
FAST Summary File

Predictions were generated on 09-Dec-2020 at 10:20:36 using OpenFAST, compiled as a 64-bit application using double precision at commit -128-NOTFOUND
  compiled with
    NWTC Subroutine Library
    ElastoDyn
    BeamDyn (unknown version, unknown date) [not called]
    InflowWind
    AeroDyn14 (unknown version, unknown date) [not called]
    AeroDyn
    ServoDyn
    HydroDyn
    SubDyn (unknown version, unknown date) [not called]
    ExtPtfm_MCKF (unknown version, unknown date) [not called]
    MAP++ (<1.20.10>, <Dec-09-2020>)
    FEAMooring (unknown version, unknown date) [not called]
    MoorDyn (unknown version, unknown date) [not called]
    OrcaFlexInterface (unknown version, unknown date) [not called]
    IceFloe (unknown version, unknown date) [not called]
    IceDyn (unknown version, unknown date) [not called]


Modeling a floating offshore turbine
Description from the FAST input file: 
  FAST Certification Test #23: NREL 5.0 MW Baseline Wind Turbine with MIT-NREL TLP Configuration, for use in offshore analysis

Interpolation order for input/output time histories: 2 (quadratic)
Number of correction iterations:  0
Number of rows in Jacobian matrix used for coupling ElastoDyn to HydroDyn:     12


   Requested Time Steps  
  -------------------------------------------------
  Component          Time Step (s)    Subcycles (-)
  -----------------  ---------------  -------------
  FAST (glue code)     1.2500000E-02
  InflowWind           1.2500000E-02         1
  ElastoDyn            1.2500000E-02         1
  AeroDyn              1.2500000E-02         1
  ServoDyn             1.2500000E-02         1
  HydroDyn             1.2500000E-02         1
  MAP++                1.2500000E-02         1
  FAST output files    1.2500000E-02         1


   Requested Channels in FAST Output File(s)  
  --------------------------------------------
  Number  Name                  Units                 Generated by
  ------  --------------------  --------------------  ------------
       1  Time                  (s)                   OpenFAST
       2  Wind1VelX             (m/s)                 InflowWind
       3  Wind1VelY             (m/s)                 InflowWind
       4  Wind1VelZ             (m/s)                 InflowWind
       5  BldPitch1             (deg)                 ElastoDyn
       6  BldPitch2             (deg)                 ElastoDyn
       7  BldPitch3             (deg)                 ElastoDyn
       8  Azimuth               (deg)                 ElastoDyn
       9  RotSpeed              (rpm)                 ElastoDyn
      10  GenSpeed              (rpm)                 ElastoDyn
      11  NacYaw                (deg)                 ElastoDyn
      12  OoPDefl1              (m)                   ElastoDyn
      13  IPDefl1               (m)                   ElastoDyn
      14  TwstDefl1             (deg)                 ElastoDyn
      15  OoPDefl2              (m)                   ElastoDyn
      16  IPDefl2               (m)                   ElastoDyn
      17  TwstDefl2             (deg)                 ElastoDyn
      18  OoPDefl3              (m)                   ElastoDyn
      19  IPDefl3               (m)                   ElastoDyn
      20  TwstDefl3             (deg)                 ElastoDyn
      21  TwrClrnc1             (m)                   ElastoDyn
      22  TwrClrnc2             (m)                   ElastoDyn
      23  TwrClrnc3             (m)                   ElastoDyn
      24  NcIMUTAxs             (m/s^2)               ElastoDyn
      25  NcIMUTAys             (m/s^2)               ElastoDyn
      26  NcIMUTAzs             (m/s^2)               ElastoDyn
      27  TTDspFA               (m)                   ElastoDyn
      28  TTDspSS               (m)                   ElastoDyn
      29  TTDspTwst             (deg)                 ElastoDyn
      30  PtfmSurge             (m)                   ElastoDyn
      31  PtfmSway              (m)                   ElastoDyn
      32  PtfmHeave             (m)                   ElastoDyn
      33  PtfmRoll              (deg)                 ElastoDyn
      34  PtfmPitch             (deg)                 ElastoDyn
      35  PtfmYaw               (deg)                 ElastoDyn
      36  PtfmTAxt              (m/s^2)               ElastoDyn
      37  PtfmTAyt              (m/s^2)               ElastoDyn
      38  PtfmTAzt              (m/s^2)               ElastoDyn
      39  RootFxc1              (kN)                  ElastoDyn
      40  RootFyc1              (kN)                  ElastoDyn
      41  RootFzc1              (kN)                  ElastoDyn
      42  RootMxc1              (kN-m)                ElastoDyn
      43  RootMyc1              (kN-m)                ElastoDyn
      44  RootMzc1              (kN-m)                ElastoDyn
      45  RootFxc2              (kN)                  ElastoDyn
      46  RootFyc2              (kN)                  ElastoDyn
      47  RootFzc2              (kN)                  ElastoDyn
      48  RootMxc2              (kN-m)                ElastoDyn
      49  RootMyc2              (kN-m)                ElastoDyn
      50  RootMzc2              (kN-m)                ElastoDyn
      51  RootFxc3              (kN)                  ElastoDyn
      52  RootFyc3              (kN)                  ElastoDyn
      53  RootFzc3              (kN)                  ElastoDyn
      54  RootMxc3              (kN-m)                ElastoDyn
      55  RootMyc3              (kN-m)                ElastoDyn
      56  RootMzc3              (kN-m)                ElastoDyn
      57  Spn1MLxb1             (kN-m)                ElastoDyn
      58  Spn1MLyb1             (kN-m)                ElastoDyn
      59  Spn1MLzb1             (kN-m)                ElastoDyn
      60  Spn1MLxb2             (kN-m)                ElastoDyn
      61  Spn1MLyb2             (kN-m)                ElastoDyn
      62  Spn1MLzb2             (kN-m)                ElastoDyn
      63  Spn1MLxb3             (kN-m)                ElastoDyn
      64  Spn1MLyb3             (kN-m)                ElastoDyn
      65  Spn1MLzb3             (kN-m)                ElastoDyn
      66  RotThrust             (kN)                  ElastoDyn
      67  LSSGagFya             (kN)                  ElastoDyn
      68  LSSGagFza             (kN)                  ElastoDyn
      69  RotTorq               (kN-m)                ElastoDyn
      70  LSSGagMya             (kN-m)                ElastoDyn
      71  LSSGagMza             (kN-m)                ElastoDyn
      72  YawBrFxp              (kN)                  ElastoDyn
      73  YawBrFyp              (kN)                  ElastoDyn
      74  YawBrFzp              (kN)                  ElastoDyn
      75  YawBrMxp              (kN-m)                ElastoDyn
      76  YawBrMyp              (kN-m)                ElastoDyn
      77  YawBrMzp              (kN-m)                ElastoDyn
      78  TwrBsFxt              (kN)                  ElastoDyn
      79  TwrBsFyt              (kN)                  ElastoDyn
      80  TwrBsFzt              (kN)                  ElastoDyn
      81  TwrBsMxt              (kN-m)                ElastoDyn
      82  TwrBsMyt              (kN-m)                ElastoDyn
      83  TwrBsMzt              (kN-m)                ElastoDyn
      84  TwHt1MLxt             (kN-m)                ElastoDyn
      85  TwHt1MLyt             (kN-m)                ElastoDyn
      86  TwHt1MLzt             (kN-m)                ElastoDyn
      87  GenPwr                (kW)                  ServoDyn
      88  GenTq                 (kN-m)                ServoDyn
      89  Wave1Elev             (m)                   HydroDyn
      90  HydroFxi              (N)                   HydroDyn
      91  HydroFyi              (N)                   HydroDyn
      92  HydroFzi              (N)                   HydroDyn
      93  HydroMxi              (N-m)                 HydroDyn
      94  HydroMyi              (N-m)                 HydroDyn
      95  HydroMzi              (N-m)                 HydroDyn
      96  WRPSurge              (m)                   HydroDyn
      97  WRPSway               (m)                   HydroDyn
      98  WRPHeave              (m)                   HydroDyn
      99  WRPRoll               (rad)                 HydroDyn
     100  WRPPitch              (rad)                 HydroDyn
     101  WRPYaw                (rad)                 HydroDyn
     102  WRPTVxi               (m/s)                 HydroDyn
     103  WRPTVyi               (m/s)                 HydroDyn
     104  WRPTVzi               (m/s)                 HydroDyn
     105  WRPRVxi               (rad/s)               HydroDyn
     106  WRPRVyi               (rad/s)               HydroDyn
     107  WRPRVzi               (rad/s)               HydroDyn
     108  WRPTAxi               (m/s^2)               HydroDyn
     109  WRPTAyi               (m/s^2)               HydroDyn
     110  WRPTAzi               (m/s^2)               HydroDyn
     111  WRPRAxi               (rad/s^2)             HydroDyn
     112  WRPRAyi               (rad/s^2)             HydroDyn
     113  WRPRAzi               (rad/s^2)             HydroDyn
     114  WavesFxi              (N)                   HydroDyn
     115  WavesFyi              (N)                   HydroDyn
     116  WavesFzi              (N)                   HydroDyn
     117  WavesMxi              (N-m)                 HydroDyn
     118  WavesMyi              (N-m)                 HydroDyn
     119  WavesMzi              (N-m)                 HydroDyn
     120  HdrStcFxi             (N)                   HydroDyn
     121  HdrStcFyi             (N)                   HydroDyn
     122  HdrStcFzi             (N)                   HydroDyn
     123  HdrStcMxi             (N-m)                 HydroDyn
     124  HdrStcMyi             (N-m)                 HydroDyn
     125  HdrStcMzi             (N-m)                 HydroDyn
     126  RdtnFxi               (N)                   HydroDyn
     127  RdtnFyi               (N)                   HydroDyn
     128  RdtnFzi               (N)                   HydroDyn
     129  RdtnMxi               (N-m)                 HydroDyn
     130  RdtnMyi               (N-m)                 HydroDyn
     131  RdtnMzi               (N-m)                 HydroDyn
     132  T[1]                  [N]                   MAP++
     133  T_a[1]                [N]                   MAP++
     134  T[2]                  [N]                   MAP++
     135  T_a[2]                [N]                   MAP++
     136  T[3]                  [N]                   MAP++
     137  T_a[3]                [N]                   MAP++
     138  T[4]                  [N]                   MAP++
     139  T_a[4]                [N]                   MAP++
     140  T[5]                  [N]                   MAP++
     141  T_a[5]                [N]                   MAP++
     142  T[6]                  [N]                   MAP++
     143  T_a[6]                [N]                   MAP++
     144  T[7]                  [N]                   MAP++
     145  T_a[7]                [N]                   MAP++
     146  T[8]                  [N]                   MAP++
     147  T_a[8]                [N]                   MAP++
