
Predictions were generated on 20-Dec-2019 at 14:30:05 using OpenFAST, compiled as a 64-bit application using double precision at commit -128-NOTFOUND
 linked with  NWTC Subroutine Library; ElastoDyn; InflowWind; AeroDyn; ServoDyn

Description from the FAST input file: FAST Certification Test #12: WindPACT 1.5 MW Baseline with many DOFs with VS and VP and ECD wind.

Time      	Wind1VelX 	Wind1VelY 	Wind1VelZ 	OoPDefl3  	IPDefl3   	TipALxb3  	TipALyb3  	Spn4ALxb1 	Spn4ALyb1 	BldPitch3 	RotAccel  	LSSGagA   	HSShftA   	RootFxb3  	RootFyb3  	RootMEdg3 	RootMFlp3 	LSShftFya 	LSShftFza 	YawBrFxp  	YawBrFyp  	TwrBsFxt  	TwrBsFyt  	RtSkew    
(s)       	(m/s)     	(m/s)     	(m/s)     	(m)       	(m)       	(m/s^2)   	(m/s^2)   	(m/s^2)   	(m/s^2)   	(deg)     	(deg/s^2) 	(deg/s^2) 	(deg/s^2) 	(kN)      	(kN)      	(kN-m)    	(kN-m)    	(kN)      	(kN)      	(kN)      	(kN)      	(kN)      	(kN)      	(deg)     
    5.0000	 1.180E+01	 0.000E+00	 0.000E+00	 1.332E+00	-4.106E-01	 1.316E+01	 4.926E-01	 3.121E+00	 1.844E-01	 7.500E+00	 3.287E-02	 3.584E-02	 3.153E+00	 6.048E+01	-4.140E+01	 4.913E+02	 1.097E+03	 2.114E+02	 1.613E+02	 1.075E+02	 5.100E+00	 8.871E+01	 9.402E+00	 5.112E+00
    5.0500	 1.180E+01	 0.000E+00	 0.000E+00	 1.381E+00	-3.037E-01	 4.777E+01	-4.309E+00	 5.375E+00	 1.206E+00	 2.600E+00	-1.097E+01	-5.868E+00	-5.161E+02	 5.990E+01	-4.521E+01	 5.359E+02	 1.099E+03	 2.273E+02	 1.383E+02	 1.098E+02	 3.360E+00	 9.139E+01	 8.182E+00	 5.317E+00
    5.1000	 1.180E+01	 0.000E+00	 0.000E+00	 1.478E+00	-3.337E-01	 2.569E+01	 6.852E+00	 7.292E+00	-4.302E-02	 2.600E+00	 9.499E+00	-6.868E-01	-6.042E+01	 5.854E+01	-4.012E+01	 5.308E+02	 1.116E+03	 2.395E+02	 1.147E+02	 1.136E+02	 5.678E+00	 9.238E+01	 2.668E+00	 5.502E+00
    5.1500	 1.180E+01	 0.000E+00	 0.000E+00	 1.605E+00	-3.473E-01	 9.705E+00	 7.978E+00	 6.868E+00	 2.474E-01	 2.600E+00	 7.968E+00	 8.148E+00	 7.167E+02	 6.192E+01	-3.900E+01	 5.205E+02	 1.197E+03	 2.505E+02	 9.025E+01	 1.190E+02	 7.304E+00	 9.567E+01	 7.136E-01	 5.581E+00
    5.2000	 1.180E+01	 0.000E+00	 0.000E+00	 1.721E+00	-3.316E-01	 1.093E+01	 2.626E+00	 3.778E+00	 3.606E-01	 2.600E+00	 5.999E-01	 2.247E+00	 1.977E+02	 6.992E+01	-3.698E+01	 4.685E+02	 1.336E+03	 2.603E+02	 6.273E+01	 1.267E+02	 2.251E+00	 1.009E+02	 6.620E+00	 5.559E+00
    5.2500	 1.180E+01	 0.000E+00	 0.000E+00	 1.824E+00	-3.073E-01	 1.466E+01	-2.391E+00	 1.176E+00	 2.655E-01	 2.600E+00	-5.241E+00	-5.563E+00	-4.894E+02	 7.729E+01	-3.397E+01	 4.077E+02	 1.461E+03	 2.664E+02	 3.408E+01	 1.363E+02	-2.750E+00	 1.061E+02	 1.087E+01	 5.473E+00
    5.3000	 1.180E+01	 0.000E+00	 0.000E+00	 1.919E+00	-2.969E-01	 9.881E+00	-2.359E+00	 1.406E+00	 5.683E-02	 2.600E+00	-4.776E+00	-5.189E+00	-4.564E+02	 7.965E+01	-3.032E+01	 3.660E+02	 1.516E+03	 2.676E+02	 6.679E+00	 1.468E+02	-2.353E+00	 1.114E+02	 6.364E+00	 5.359E+00
    5.3500	 1.180E+01	 0.000E+00	 0.000E+00	 1.991E+00	-2.995E-01	 1.708E+00	 1.107E+00	 3.502E+00	-2.237E-01	 2.600E+00	 6.544E-01	 7.125E-01	 6.267E+01	 7.796E+01	-2.614E+01	 3.377E+02	 1.510E+03	 2.654E+02	-1.945E+01	 1.569E+02	 1.539E+00	 1.200E+02	-3.406E+00	 5.246E+00
    5.4000	 1.180E+01	 0.000E+00	 0.000E+00	 2.021E+00	-2.976E-01	 8.983E-01	 2.986E+00	 4.972E+00	-4.157E-01	 2.600E+00	 4.742E+00	 4.933E+00	 4.339E+02	 7.613E+01	-2.188E+01	 3.025E+02	 1.490E+03	 2.611E+02	-4.595E+01	 1.662E+02	 3.525E+00	 1.348E+02	-9.337E+00	 5.162E+00
    5.4500	 1.180E+01	 0.000E+00	 0.000E+00	 2.007E+00	-2.792E-01	 9.222E+00	 1.142E+00	 4.895E+00	-4.161E-01	 2.600E+00	 4.051E+00	 4.138E+00	 3.640E+02	 7.619E+01	-1.779E+01	 2.505E+02	 1.483E+03	 2.546E+02	-7.373E+01	 1.756E+02	 7.815E-01	 1.546E+02	-6.667E+00	 5.118E+00
    5.5000	 1.180E+01	 0.000E+00	 0.000E+00	 1.967E+00	-2.498E-01	 1.893E+01	-2.047E+00	 4.427E+00	-2.898E-01	 2.600E+00	 9.543E-01	 8.951E-01	 7.873E+01	 7.671E+01	-1.375E+01	 1.904E+02	 1.477E+03	 2.448E+02	-1.015E+02	 1.862E+02	-4.477E+00	 1.752E+02	 5.857E-01	 5.112E+00
    5.5500	 1.180E+01	 0.000E+00	 0.000E+00	 1.926E+00	-2.230E-01	 2.274E+01	-3.309E+00	 4.771E+00	-1.720E-01	 2.600E+00	-4.670E-01	-5.563E-01	-4.894E+01	 7.584E+01	-9.645E+00	 1.366E+02	 1.453E+03	 2.317E+02	-1.270E+02	 1.985E+02	-7.842E+00	 1.929E+02	 4.348E+00	 5.134E+00
    5.6000	 1.180E+01	 0.000E+00	 0.000E+00	 1.894E+00	-2.053E-01	 2.115E+01	-2.092E+00	 5.633E+00	-1.370E-01	 2.600E+00	 7.929E-01	 7.746E-01	 6.813E+01	 7.365E+01	-5.517E+00	 9.391E+01	 1.415E+03	 2.161E+02	-1.493E+02	 2.120E+02	-7.286E+00	 2.074E+02	 5.880E-01	 5.176E+00
    5.6500	 1.180E+01	 0.000E+00	 0.000E+00	 1.868E+00	-1.923E-01	 1.948E+01	-3.410E-01	 5.920E+00	-1.558E-01	 2.600E+00	 2.465E+00	 2.524E+00	 2.220E+02	 7.180E+01	-1.556E+00	 5.576E+01	 1.383E+03	 1.991E+02	-1.692E+02	 2.259E+02	-4.618E+00	 2.212E+02	-7.535E+00	 5.233E+00
    5.7000	 1.180E+01	 0.000E+00	 0.000E+00	 1.843E+00	-1.770E-01	 2.079E+01	 1.240E-01	 5.218E+00	-1.573E-01	 2.600E+00	 2.309E+00	 2.364E+00	 2.079E+02	 7.147E+01	 2.119E+00	 1.462E+01	 1.371E+03	 1.805E+02	-1.878E+02	 2.390E+02	-3.141E+00	 2.368E+02	-1.350E+01	 5.298E+00
    5.7500	 1.180E+01	 0.000E+00	 0.000E+00	 1.824E+00	-1.580E-01	 2.317E+01	-5.729E-01	 4.225E+00	-1.218E-01	 2.600E+00	 6.113E-01	 5.987E-01	 5.266E+01	 7.226E+01	 5.548E+00	-2.979E+01	 1.376E+03	 1.597E+02	-2.054E+02	 2.510E+02	-4.421E+00	 2.542E+02	-1.358E+01	 5.365E+00
    5.8000	 1.180E+01	 0.000E+00	 0.000E+00	 1.816E+00	-1.397E-01	 2.348E+01	-1.062E+00	 3.731E+00	-9.195E-02	 2.600E+00	-5.960E-01	-6.513E-01	-5.729E+01	 7.299E+01	 8.878E+00	-7.237E+01	 1.384E+03	 1.367E+02	-2.210E+02	 2.621E+02	-7.302E+00	 2.716E+02	-9.363E+00	 5.430E+00
    5.8500	 1.180E+01	 0.000E+00	 0.000E+00	 1.820E+00	-1.260E-01	 2.134E+01	-5.623E-01	 3.739E+00	-1.118E-01	 2.600E+00	-5.745E-02	-9.356E-02	-8.230E+00	 7.318E+01	 1.221E+01	-1.099E+02	 1.387E+03	 1.122E+02	-2.338E+02	 2.726E+02	-9.512E+00	 2.869E+02	-5.388E+00	 5.489E+00
    5.9000	 1.180E+01	 0.000E+00	 0.000E+00	 1.831E+00	-1.157E-01	 1.902E+01	 3.454E-01	 3.693E+00	-1.798E-01	 2.600E+00	 1.455E+00	 1.472E+00	 1.295E+02	 7.327E+01	 1.550E+01	-1.445E+02	 1.391E+03	 8.691E+01	-2.437E+02	 2.828E+02	-9.789E+00	 2.991E+02	-4.917E+00	 5.543E+00
    5.9500	 1.180E+01	 0.000E+00	 0.000E+00	 1.843E+00	-1.049E-01	 1.838E+01	 5.753E-01	 3.281E+00	-2.562E-01	 2.600E+00	 2.255E+00	 2.302E+00	 2.025E+02	 7.382E+01	 1.861E+01	-1.801E+02	 1.401E+03	 6.126E+01	-2.508E+02	 2.925E+02	-8.584E+00	 3.085E+02	-7.771E+00	 5.591E+00
    6.0000	 1.180E+01	 0.000E+00	 0.000E+00	 1.855E+00	-9.148E-02	 1.909E+01	-1.936E-01	 2.751E+00	-3.122E-01	 2.600E+00	 1.670E+00	 1.690E+00	 1.487E+02	 7.481E+01	 2.142E+01	-2.172E+02	 1.417E+03	 3.514E+01	-2.556E+02	 3.011E+02	-7.191E+00	 3.161E+02	-1.134E+01	 5.628E+00
    6.0500	 1.180E+01	-1.545E-03	 0.000E+00	 1.867E+00	-7.790E-02	 1.967E+01	-1.260E+00	 2.504E+00	-3.563E-01	 2.600E+00	 5.879E-01	 5.646E-01	 4.966E+01	 7.579E+01	 2.384E+01	-2.510E+02	 1.432E+03	 8.501E+00	-2.578E+02	 3.079E+02	-6.539E+00	 3.231E+02	-1.301E+01	 5.650E+00
    6.1000	 1.180E+01	-3.090E-03	 0.000E+00	 1.882E+00	-6.810E-02	 1.944E+01	-1.730E+00	 2.611E+00	-4.149E-01	 2.600E+00	 3.064E-01	 2.680E-01	 2.358E+01	 7.647E+01	 2.584E+01	-2.765E+02	 1.445E+03	-1.847E+01	-2.573E+02	 3.126E+02	-6.720E+00	 3.299E+02	-1.189E+01	 5.658E+00
    6.1500	 1.181E+01	-7.729E-03	 0.000E+00	 1.899E+00	-6.388E-02	 1.901E+01	-1.403E+00	 2.838E+00	-5.011E-01	 2.600E+00	 1.155E+00	 1.143E+00	 1.005E+02	 7.700E+01	 2.739E+01	-2.919E+02	 1.456E+03	-4.536E+01	-2.541E+02	 3.153E+02	-7.258E+00	 3.357E+02	-8.888E+00	 5.660E+00
    6.2000	 1.181E+01	-1.237E-02	 0.000E+00	 1.917E+00	-6.370E-02	 1.906E+01	-7.974E-01	 2.957E+00	-6.038E-01	 2.600E+00	 2.323E+00	 2.341E+00	 2.059E+02	 7.769E+01	 2.845E+01	-2.998E+02	 1.470E+03	-7.172E+01	-2.480E+02	 3.168E+02	-7.570E+00	 3.392E+02	-5.797E+00	 5.664E+00
    6.2500	 1.182E+01	-2.012E-02	 0.000E+00	 1.935E+00	-6.489E-02	 1.951E+01	-5.191E-01	 2.991E+00	-7.035E-01	 2.600E+00	 2.820E+00	 2.852E+00	 2.509E+02	 7.853E+01	 2.904E+01	-3.037E+02	 1.487E+03	-9.713E+01	-2.391E+02	 3.173E+02	-7.239E+00	 3.395E+02	-4.175E+00	 5.677E+00
    6.3000	 1.183E+01	-2.788E-02	 0.000E+00	 1.957E+00	-6.621E-02	 1.976E+01	-6.898E-01	 3.069E+00	-7.946E-01	 2.600E+00	 2.488E+00	 2.495E+00	 2.195E+02	 7.950E+01	 2.920E+01	-3.051E+02	 1.507E+03	-1.213E+02	-2.276E+02	 3.170E+02	-6.146E+00	 3.366E+02	-4.474E+00	 5.699E+00
    6.3500	 1.185E+01	-3.887E-02	 0.000E+00	 1.981E+00	-6.835E-02	 1.961E+01	-1.016E+00	 3.272E+00	-8.789E-01	 2.600E+00	 1.922E+00	 1.910E+00	 1.680E+02	 8.045E+01	 2.900E+01	-3.033E+02	 1.526E+03	-1.441E+02	-2.138E+02	 3.152E+02	-4.554E+00	 3.314E+02	-5.820E+00	 5.728E+00
    6.4000	 1.186E+01	-4.988E-02	 0.000E+00	 2.007E+00	-7.254E-02	 1.936E+01	-1.202E+00	 3.532E+00	-9.549E-01	 2.600E+00	 1.794E+00	 1.774E+00	 1.561E+02	 8.138E+01	 2.850E+01	-2.969E+02	 1.546E+03	-1.655E+02	-1.981E+02	 3.118E+02	-3.043E+00	 3.254E+02	-6.546E+00	 5.754E+00
    6.4500	 1.188E+01	-6.394E-02	 0.000E+00	 2.035E+00	-7.913E-02	 1.928E+01	-1.241E+00	 3.797E+00	-1.014E+00	 2.600E+00	 2.227E+00	 2.219E+00	 1.952E+02	 8.233E+01	 2.767E+01	-2.856E+02	 1.567E+03	-1.857E+02	-1.803E+02	 3.067E+02	-2.155E+00	 3.192E+02	-5.350E+00	 5.773E+00
    6.5000	 1.189E+01	-7.804E-02	 0.000E+00	 2.064E+00	-8.753E-02	 1.940E+01	-1.326E+00	 4.048E+00	-1.046E+00	 2.600E+00	 2.839E+00	 2.845E+00	 2.503E+02	 8.325E+01	 2.645E+01	-2.699E+02	 1.589E+03	-2.043E+02	-1.605E+02	 3.001E+02	-1.973E+00	 3.122E+02	-2.286E+00	 5.778E+00
    6.5500	 1.191E+01	-9.522E-02	 0.000E+00	 2.093E+00	-9.725E-02	 1.949E+01	-1.566E+00	 4.317E+00	-1.057E+00	 2.600E+00	 3.233E+00	 3.246E+00	 2.855E+02	 8.407E+01	 2.480E+01	-2.498E+02	 1.609E+03	-2.207E+02	-1.387E+02	 2.927E+02	-1.989E+00	 3.037E+02	 1.186E+00	 5.772E+00
    6.6000	 1.193E+01	-1.125E-01	 0.000E+00	 2.121E+00	-1.084E-01	 1.950E+01	-1.872E+00	 4.584E+00	-1.061E+00	 2.600E+00	 3.309E+00	 3.312E+00	 2.914E+02	 8.474E+01	 2.272E+01	-2.248E+02	 1.627E+03	-2.346E+02	-1.152E+02	 2.848E+02	-1.498E+00	 2.930E+02	 3.290E+00	 5.758E+00
    6.6500	 1.196E+01	-1.330E-01	 0.000E+00	 2.148E+00	-1.217E-01	 1.964E+01	-2.075E+00	 4.835E+00	-1.070E+00	 2.600E+00	 3.224E+00	 3.224E+00	 2.836E+02	 8.532E+01	 2.023E+01	-1.944E+02	 1.643E+03	-2.457E+02	-9.042E+01	 2.767E+02	-1.886E-01	 2.804E+02	 3.312E+00	 5.741E+00
    6.7000	 1.198E+01	-1.537E-01	 0.000E+00	 2.173E+00	-1.371E-01	 2.009E+01	-2.103E+00	 5.053E+00	-1.084E+00	 2.600E+00	 3.161E+00	 3.157E+00	 2.777E+02	 8.585E+01	 1.737E+01	-1.583E+02	 1.658E+03	-2.541E+02	-6.467E+01	 2.681E+02	 1.559E+00	 2.671E+02	 2.166E+00	 5.724E+00
    6.7500	 1.201E+01	-1.774E-01	 0.000E+00	 2.195E+00	-1.545E-01	 2.073E+01	-2.023E+00	 5.266E+00	-1.097E+00	 2.600E+00	 3.190E+00	 3.190E+00	 2.807E+02	 8.629E+01	 1.415E+01	-1.175E+02	 1.671E+03	-2.599E+02	-3.799E+01	 2.588E+02	 2.987E+00	 2.541E+02	 1.611E+00	 5.711E+00
    6.8000	 1.203E+01	-2.012E-01	 0.000E+00	 2.215E+00	-1.730E-01	 2.127E+01	-1.936E+00	 5.468E+00	-1.102E+00	 2.600E+00	 3.314E+00	 3.329E+00	 2.928E+02	 8.651E+01	 1.059E+01	-7.286E+01	 1.681E+03	-2.631E+02	-1.045E+01	 2.490E+02	 3.573E+00	 2.419E+02	 2.817E+00	 5.700E+00
    6.8500	 1.206E+01	-2.284E-01	 0.000E+00	 2.232E+00	-1.921E-01	 2.160E+01	-1.887E+00	 5.650E+00	-1.099E+00	 2.600E+00	 3.511E+00	 3.509E+00	 3.087E+02	 8.653E+01	 6.799E+00	-2.591E+01	 1.687E+03	-2.635E+02	 1.760E+01	 2.390E+02	 3.421E+00	 2.302E+02	 5.478E+00	 5.692E+00
    6.9000	 1.210E+01	-2.557E-01	 0.000E+00	 2.246E+00	-2.114E-01	 2.189E+01	-1.867E+00	 5.770E+00	-1.091E+00	 2.600E+00	 3.728E+00	 3.726E+00	 3.278E+02	 8.638E+01	 2.847E+00	 2.252E+01	 1.691E+03	-2.608E+02	 4.563E+01	 2.292E+02	 3.161E+00	 2.186E+02	 8.078E+00	 5.685E+00
    6.9500	 1.213E+01	-2.863E-01	 0.000E+00	 2.257E+00	-2.306E-01	 2.237E+01	-1.870E+00	 5.832E+00	-1.082E+00	 2.600E+00	 3.877E+00	 3.884E+00	 3.417E+02	 8.619E+01	-1.179E+00	 7.149E+01	 1.692E+03	-2.550E+02	 7.306E+01	 2.201E+02	 3.385E+00	 2.066E+02	 9.157E+00	 5.682E+00
    7.0000	 1.216E+01	-3.170E-01	 0.000E+00	 2.263E+00	-2.493E-01	 2.307E+01	-1.928E+00	 5.849E+00	-1.068E+00	 2.600E+00	 3.856E+00	 3.861E+00	 3.396E+02	 8.599E+01	-5.243E+00	 1.203E+02	 1.692E+03	-2.463E+02	 9.954E+01	 2.117E+02	 4.186E+00	 1.945E+02	 8.409E+00	 5.683E+00
    7.0500	 1.220E+01	-3.511E-01	 0.000E+00	 2.265E+00	-2.672E-01	 2.381E+01	-2.053E+00	 5.859E+00	-1.048E+00	 2.600E+00	 3.679E+00	 3.683E+00	 3.239E+02	 8.579E+01	-9.343E+00	 1.687E+02	 1.691E+03	-2.347E+02	 1.249E+02	 2.040E+02	 5.142E+00	 1.832E+02	 6.802E+00	 5.691E+00
    7.1000	 1.224E+01	-3.854E-01	 0.000E+00	 2.265E+00	-2.845E-01	 2.442E+01	-2.208E+00	 5.854E+00	-1.021E+00	 2.600E+00	 3.478E+00	 3.474E+00	 3.056E+02	 8.554E+01	-1.347E+01	 2.169E+02	 1.688E+03	-2.204E+02	 1.491E+02	 1.968E+02	 5.668E+00	 1.734E+02	 5.757E+00	 5.703E+00
    7.1500	 1.228E+01	-4.230E-01	 0.000E+00	 2.263E+00	-3.016E-01	 2.480E+01	-2.299E+00	 5.832E+00	-9.930E-01	 2.600E+00	 3.420E+00	 3.415E+00	 3.004E+02	 8.523E+01	-1.763E+01	 2.652E+02	 1.684E+03	-2.035E+02	 1.720E+02	 1.903E+02	 5.473E+00	 1.654E+02	 6.040E+00	 5.725E+00
    7.2000	 1.232E+01	-4.607E-01	 0.000E+00	 2.260E+00	-3.187E-01	 2.504E+01	-2.264E+00	 5.767E+00	-9.713E-01	 2.600E+00	 3.541E+00	 3.538E+00	 3.112E+02	 8.490E+01	-2.176E+01	 3.135E+02	 1.678E+03	-1.839E+02	 1.931E+02	 1.846E+02	 4.730E+00	 1.591E+02	 7.282E+00	 5.754E+00
    7.2500	 1.236E+01	-5.020E-01	 0.000E+00	 2.255E+00	-3.356E-01	 2.525E+01	-2.094E+00	 5.680E+00	-9.673E-01	 2.600E+00	 3.779E+00	 3.789E+00	 3.333E+02	 8.463E+01	-2.577E+01	 3.609E+02	 1.673E+03	-1.620E+02	 2.120E+02	 1.800E+02	 3.890E+00	 1.540E+02	 8.356E+00	 5.796E+00
    7.3000	 1.241E+01	-5.436E-01	 0.000E+00	 2.248E+00	-3.517E-01	 2.546E+01	-1.895E+00	 5.593E+00	-9.828E-01	 2.600E+00	 3.929E+00	 3.927E+00	 3.454E+02	 8.448E+01	-2.959E+01	 4.059E+02	 1.669E+03	-1.382E+02	 2.283E+02	 1.768E+02	 3.322E+00	 1.499E+02	 8.259E+00	 5.848E+00
    7.3500	 1.245E+01	-5.886E-01	 0.000E+00	 2.241E+00	-3.662E-01	 2.564E+01	-1.797E+00	 5.541E+00	-1.002E+00	 2.600E+00	 3.769E+00	 3.773E+00	 3.319E+02	 8.448E+01	-3.317E+01	 4.473E+02	 1.665E+03	-1.128E+02	 2.419E+02	 1.751E+02	 3.140E+00	 1.467E+02	 6.759E+00	 5.916E+00
    7.4000	 1.250E+01	-6.340E-01	 0.000E+00	 2.234E+00	-3.789E-01	 2.570E+01	-1.783E+00	 5.516E+00	-1.021E+00	 2.600E+00	 3.471E+00	 3.467E+00	 3.050E+02	 8.456E+01	-3.644E+01	 4.844E+02	 1.663E+03	-8.609E+01	 2.525E+02	 1.746E+02	 3.086E+00	 1.451E+02	 4.562E+00	 5.992E+00
    7.4500	 1.255E+01	-6.827E-01	 0.000E+00	 2.227E+00	-3.923E-01	 2.510E+01	-1.765E+00	 5.321E+00	-1.021E+00	 2.666E+00	 3.207E+00	 3.689E+00	 3.245E+02	 8.442E+01	-3.928E+01	 5.162E+02	 1.660E+03	-5.833E+01	 2.601E+02	 1.751E+02	 2.891E+00	 1.455E+02	 2.673E+00	 6.082E+00
    7.5000	 1.260E+01	-7.318E-01	 0.000E+00	 2.220E+00	-4.040E-01	 2.446E+01	-1.788E+00	 5.247E+00	-1.044E+00	 2.752E+00	 3.302E+00	 3.728E+00	 3.279E+02	 8.465E+01	-4.171E+01	 5.419E+02	 1.659E+03	-2.971E+01	 2.647E+02	 1.768E+02	 2.024E+00	 1.480E+02	 2.012E+00	 6.177E+00
    7.5500	 1.265E+01	-7.846E-01	 0.000E+00	 2.211E+00	-4.133E-01	 2.413E+01	-1.987E+00	 5.159E+00	-1.052E+00	 2.841E+00	 3.288E+00	 3.726E+00	 3.278E+02	 8.500E+01	-4.375E+01	 5.621E+02	 1.659E+03	-5.605E-01	 2.662E+02	 1.795E+02	 6.742E-01	 1.525E+02	 2.253E+00	 6.290E+00
    7.6000	 1.270E+01	-8.378E-01	 0.000E+00	 2.201E+00	-4.207E-01	 2.389E+01	-2.163E+00	 5.120E+00	-1.056E+00	 2.932E+00	 3.302E+00	 3.752E+00	 3.300E+02	 8.535E+01	-4.536E+01	 5.775E+02	 1.658E+03	 2.857E+01	 2.642E+02	 1.835E+02	-6.716E-01	 1.583E+02	 2.340E+00	 6.414E+00
    7.6500	 1.275E+01	-8.945E-01	 0.000E+00	 2.190E+00	-4.268E-01	 2.362E+01	-2.196E+00	 5.167E+00	-1.064E+00	 3.026E+00	 3.402E+00	 3.867E+00	 3.402E+02	 8.572E+01	-4.653E+01	 5.885E+02	 1.656E+03	 5.716E+01	 2.591E+02	 1.886E+02	-1.585E+00	 1.651E+02	 1.358E+00	 6.559E+00
    7.7000	 1.281E+01	-9.516E-01	 0.000E+00	 2.178E+00	-4.315E-01	 2.336E+01	-2.144E+00	 5.255E+00	-1.073E+00	 3.124E+00	 3.483E+00	 3.970E+00	 3.493E+02	 8.607E+01	-4.725E+01	 5.948E+02	 1.655E+03	 8.484E+01	 2.508E+02	 1.949E+02	-2.063E+00	 1.728E+02	-7.007E-01	 6.717E+00
    7.7500	 1.287E+01	-1.012E+00	 0.000E+00	 2.166E+00	-4.344E-01	 2.319E+01	-2.126E+00	 5.335E+00	-1.081E+00	 3.227E+00	 3.437E+00	 3.948E+00	 3.473E+02	 8.642E+01	-4.755E+01	 5.960E+02	 1.653E+03	 1.114E+02	 2.396E+02	 2.020E+02	-2.457E+00	 1.817E+02	-3.015E+00	 6.895E+00
    7.8000	 1.292E+01	-1.074E+00	 0.000E+00	 2.154E+00	-4.353E-01	 2.305E+01	-2.171E+00	 5.374E+00	-1.084E+00	 3.330E+00	 3.312E+00	 3.826E+00	 3.366E+02	 8.680E+01	-4.742E+01	 5.919E+02	 1.652E+03	 1.367E+02	 2.255E+02	 2.098E+02	-3.132E+00	 1.919E+02	-4.663E+00	 7.082E+00
    7.8500	 1.298E+01	-1.139E+00	 0.000E+00	 2.143E+00	-4.344E-01	 2.288E+01	-2.206E+00	 5.399E+00	-1.086E+00	 3.434E+00	 3.273E+00	 3.787E+00	 3.331E+02	 8.718E+01	-4.685E+01	 5.827E+02	 1.651E+03	 1.603E+02	 2.087E+02	 2.180E+02	-4.162E+00	 2.031E+02	-5.323E+00	 7.285E+00
    7.9000	 1.304E+01	-1.204E+00	 0.000E+00	 2.132E+00	-4.319E-01	 2.262E+01	-2.168E+00	 5.416E+00	-1.087E+00	 3.539E+00	 3.416E+00	 3.944E+00	 3.469E+02	 8.756E+01	-4.581E+01	 5.684E+02	 1.650E+03	 1.820E+02	 1.894E+02	 2.266E+02	-5.320E+00	 2.150E+02	-5.410E+00	 7.495E+00
    7.9500	 1.310E+01	-1.274E+00	 0.000E+00	 2.123E+00	-4.279E-01	 2.234E+01	-2.102E+00	 5.430E+00	-1.091E+00	 3.649E+00	 3.656E+00	 4.228E+00	 3.719E+02	 8.788E+01	-4.427E+01	 5.487E+02	 1.649E+03	 2.013E+02	 1.678E+02	 2.355E+02	-6.292E+00	 2.270E+02	-5.650E+00	 7.718E+00
    8.0000	 1.316E+01	-1.343E+00	 0.000E+00	 2.114E+00	-4.219E-01	 2.210E+01	-2.110E+00	 5.409E+00	-1.096E+00	 3.767E+00	 3.826E+00	 4.440E+00	 3.906E+02	 8.817E+01	-4.225E+01	 5.229E+02	 1.648E+03	 2.179E+02	 1.442E+02	 2.447E+02	-6.907E+00	 2.388E+02	-6.500E+00	 7.948E+00
    8.0500	 1.323E+01	-1.417E+00	 0.000E+00	 2.105E+00	-4.138E-01	 2.194E+01	-2.250E+00	 5.359E+00	-1.107E+00	 3.890E+00	 3.856E+00	 4.474E+00	 3.936E+02	 8.847E+01	-3.979E+01	 4.914E+02	 1.648E+03	 2.318E+02	 1.190E+02	 2.540E+02	-7.211E+00	 2.502E+02	-7.865E+00	 8.191E+00
    8.1000	 1.329E+01	-1.491E+00	 0.000E+00	 2.096E+00	-4.037E-01	 2.186E+01	-2.480E+00	 5.280E+00	-1.119E+00	 4.016E+00	 3.788E+00	 4.410E+00	 3.880E+02	 8.865E+01	-3.693E+01	 4.548E+02	 1.646E+03	 2.428E+02	 9.245E+01	 2.631E+02	-7.396E+00	 2.613E+02	-9.222E+00	 8.440E+00
    8.1500	 1.336E+01	-1.569E+00	 0.000E+00	 2.087E+00	-3.921E-01	 2.187E+01	-2.678E+00	 5.198E+00	-1.138E+00	 4.143E+00	 3.814E+00	 4.445E+00	 3.910E+02	 8.872E+01	-3.373E+01	 4.146E+02	 1.643E+03	 2.510E+02	 6.485E+01	 2.717E+02	-7.644E+00	 2.722E+02	-1.002E+01	 8.702E+00
    8.2000	 1.342E+01	-1.648E+00	 0.000E+00	 2.077E+00	-3.797E-01	 2.193E+01	-2.778E+00	 5.104E+00	-1.165E+00	 4.273E+00	 4.021E+00	 4.682E+00	 4.118E+02	 8.868E+01	-3.022E+01	 3.714E+02	 1.639E+03	 2.561E+02	 3.650E+01	 2.798E+02	-8.020E+00	 2.827E+02	-1.003E+01	 8.966E+00
    8.2500	 1.349E+01	-1.731E+00	 0.000E+00	 2.066E+00	-3.667E-01	 2.208E+01	-2.805E+00	 4.994E+00	-1.203E+00	 4.410E+00	 4.346E+00	 5.064E+00	 4.454E+02	 8.856E+01	-2.645E+01	 3.257E+02	 1.634E+03	 2.581E+02	 7.742E+00	 2.873E+02	-8.431E+00	 2.925E+02	-9.495E+00	 9.241E+00
    8.3000	 1.355E+01	-1.814E+00	 0.000E+00	 2.055E+00	-3.530E-01	 2.227E+01	-2.841E+00	 4.856E+00	-1.255E+00	 4.556E+00	 4.642E+00	 5.412E+00	 4.761E+02	 8.840E+01	-2.245E+01	 2.773E+02	 1.629E+03	 2.570E+02	-2.103E+01	 2.941E+02	-8.703E+00	 3.013E+02	-8.908E+00	 9.514E+00
    8.3500	 1.362E+01	-1.901E+00	 0.000E+00	 2.044E+00	-3.383E-01	 2.249E+01	-2.944E+00	 4.703E+00	-1.318E+00	 4.709E+00	 4.795E+00	 5.617E+00	 4.941E+02	 8.821E+01	-1.827E+01	 2.264E+02	 1.624E+03	 2.528E+02	-4.942E+01	 3.001E+02	-8.678E+00	 3.089E+02	-8.694E+00	 9.795E+00
    8.4000	 1.369E+01	-1.989E+00	 0.000E+00	 2.033E+00	-3.229E-01	 2.269E+01	-3.093E+00	 4.544E+00	-1.394E+00	 4.869E+00	 4.852E+00	 5.701E+00	 5.015E+02	 8.798E+01	-1.394E+01	 1.736E+02	 1.618E+03	 2.455E+02	-7.710E+01	 3.054E+02	-8.337E+00	 3.151E+02	-8.902E+00	 1.007E+01
    8.4500	 1.376E+01	-2.081E+00	 0.000E+00	 2.021E+00	-3.072E-01	 2.289E+01	-3.231E+00	 4.406E+00	-1.483E+00	 5.032E+00	 4.939E+00	 5.814E+00	 5.114E+02	 8.770E+01	-9.516E+00	 1.195E+02	 1.612E+03	 2.352E+02	-1.038E+02	 3.098E+02	-7.806E+00	 3.201E+02	-9.186E+00	 1.035E+01
    8.5000	 1.383E+01	-2.174E+00	 0.000E+00	 2.010E+00	-2.914E-01	 2.307E+01	-3.333E+00	 4.286E+00	-1.577E+00	 5.200E+00	 5.124E+00	 6.045E+00	 5.318E+02	 8.739E+01	-5.028E+00	 6.512E+01	 1.605E+03	 2.221E+02	-1.292E+02	 3.131E+02	-7.293E+00	 3.241E+02	-9.045E+00	 1.063E+01
    8.5500	 1.390E+01	-2.271E+00	 0.000E+00	 2.000E+00	-2.760E-01	 2.325E+01	-3.417E+00	 4.179E+00	-1.675E+00	 5.374E+00	 5.401E+00	 6.376E+00	 5.608E+02	 8.708E+01	-5.290E-01	 1.071E+01	 1.600E+03	 2.062E+02	-1.532E+02	 3.152E+02	-6.930E+00	 3.270E+02	-8.219E+00	 1.092E+01
    8.6000	 1.397E+01	-2.368E+00	 0.000E+00	 1.990E+00	-2.609E-01	 2.338E+01	-3.525E+00	 4.081E+00	-1.771E+00	 5.556E+00	 5.686E+00	 6.714E+00	 5.906E+02	 8.680E+01	 3.928E+00	-4.329E+01	 1.595E+03	 1.878E+02	-1.754E+02	 3.162E+02	-6.676E+00	 3.286E+02	-6.886E+00	 1.120E+01
    8.6500	 1.404E+01	-2.470E+00	 0.000E+00	 1.982E+00	-2.465E-01	 2.346E+01	-3.664E+00	 4.030E+00	-1.871E+00	 5.747E+00	 5.962E+00	 7.023E+00	 6.177E+02	 8.654E+01	 8.299E+00	-9.643E+01	 1.591E+03	 1.669E+02	-1.955E+02	 3.162E+02	-6.350E+00	 3.289E+02	-5.551E+00	 1.149E+01
    8.7000	 1.411E+01	-2.572E+00	 0.000E+00	 1.975E+00	-2.330E-01	 2.343E+01	-3.852E+00	 3.966E+00	-1.963E+00	 5.945E+00	 6.102E+00	 7.221E+00	 6.352E+02	 8.628E+01	 1.250E+01	-1.477E+02	 1.588E+03	 1.439E+02	-2.131E+02	 3.152E+02	-5.797E+00	 3.274E+02	-4.633E+00	 1.177E+01
    8.7500	 1.418E+01	-2.678E+00	 0.000E+00	 1.969E+00	-2.208E-01	 2.261E+01	-4.017E+00	 4.020E+00	-2.058E+00	 6.149E+00	 6.215E+00	 7.349E+00	 6.464E+02	 8.600E+01	 1.648E+01	-1.963E+02	 1.585E+03	 1.191E+02	-2.281E+02	 3.132E+02	-4.996E+00	 3.244E+02	-4.209E+00	 1.206E+01
    8.8000	 1.425E+01	-2.786E+00	 0.000E+00	 1.963E+00	-2.101E-01	 2.391E+01	-4.176E+00	 3.910E+00	-2.149E+00	 6.357E+00	 6.403E+00	 7.588E+00	 6.675E+02	 8.597E+01	 2.016E+01	-2.411E+02	 1.584E+03	 9.286E+01	-2.402E+02	 3.103E+02	-4.076E+00	 3.202E+02	-3.958E+00	 1.235E+01
    8.8500	 1.432E+01	-2.897E+00	 0.000E+00	 1.959E+00	-2.015E-01	 2.344E+01	-4.226E+00	 4.046E+00	-2.222E+00	 6.573E+00	 6.516E+00	 7.770E+00	 6.835E+02	 8.567E+01	 2.349E+01	-2.815E+02	 1.581E+03	 6.525E+01	-2.493E+02	 3.061E+02	-3.295E+00	 3.150E+02	-3.382E+00	 1.264E+01
    8.9000	 1.439E+01	-3.009E+00	 0.000E+00	 1.956E+00	-1.949E-01	 2.266E+01	-4.277E+00	 4.248E+00	-2.284E+00	 6.793E+00	 6.633E+00	 7.912E+00	 6.959E+02	 8.542E+01	 2.643E+01	-3.172E+02	 1.579E+03	 3.662E+01	-2.552E+02	 3.009E+02	-2.748E+00	 3.089E+02	-2.298E+00	 1.293E+01
    8.9500	 1.446E+01	-3.125E+00	 0.000E+00	 1.952E+00	-1.903E-01	 2.249E+01	-4.339E+00	 4.380E+00	-2.332E+00	 7.019E+00	 6.798E+00	 8.122E+00	 7.145E+02	 8.517E+01	 2.899E+01	-3.481E+02	 1.577E+03	 7.338E+00	-2.580E+02	 2.948E+02	-2.321E+00	 3.018E+02	-9.652E-01	 1.323E+01
    9.0000	 1.453E+01	-3.243E+00	 0.000E+00	 1.948E+00	-1.877E-01	 2.266E+01	-4.398E+00	 4.458E+00	-2.370E+00	 7.251E+00	 6.986E+00	 8.407E+00	 7.395E+02	 8.502E+01	 3.112E+01	-3.738E+02	 1.576E+03	-2.223E+01	-2.573E+02	 2.880E+02	-1.858E+00	 2.936E+02	 1.971E-01	 1.353E+01
    9.0500	 1.461E+01	-3.363E+00	 0.000E+00	 1.943E+00	-1.871E-01	 2.258E+01	-4.470E+00	 4.594E+00	-2.394E+00	 7.490E+00	 7.103E+00	 8.524E+00	 7.498E+02	 8.482E+01	 3.278E+01	-3.941E+02	 1.574E+03	-5.163E+01	-2.532E+02	 2.806E+02	-1.326E+00	 2.843E+02	 9.626E-01	 1.384E+01
    9.1000	 1.468E+01	-3.485E+00	 0.000E+00	 1.936E+00	-1.883E-01	 2.213E+01	-4.568E+00	 4.817E+00	-2.395E+00	 7.734E+00	 7.055E+00	 8.507E+00	 7.483E+02	 8.442E+01	 3.394E+01	-4.086E+02	 1.570E+03	-8.045E+01	-2.457E+02	 2.726E+02	-7.179E-01	 2.739E+02	 1.309E+00	 1.415E+01
    9.1500	 1.475E+01	-3.611E+00	 0.000E+00	 1.928E+00	-1.915E-01	 2.172E+01	-4.639E+00	 5.029E+00	-2.381E+00	 7.980E+00	 7.007E+00	 8.461E+00	 7.443E+02	 8.388E+01	 3.460E+01	-4.168E+02	 1.562E+03	-1.083E+02	-2.349E+02	 2.642E+02	-1.234E-01	 2.631E+02	 1.464E+00	 1.447E+01
    9.2000	 1.482E+01	-3.738E+00	 0.000E+00	 1.916E+00	-1.967E-01	 2.163E+01	-4.661E+00	 5.174E+00	-2.350E+00	 8.228E+00	 7.000E+00	 8.491E+00	 7.469E+02	 8.325E+01	 3.474E+01	-4.182E+02	 1.553E+03	-1.350E+02	-2.210E+02	 2.552E+02	 3.298E-01	 2.521E+02	 1.741E+00	 1.479E+01
    9.2500	 1.489E+01	-3.869E+00	 0.000E+00	 1.899E+00	-2.038E-01	 2.175E+01	-4.628E+00	 5.297E+00	-2.306E+00	 8.479E+00	 7.054E+00	 8.559E+00	 7.529E+02	 8.256E+01	 3.434E+01	-4.130E+02	 1.542E+03	-1.601E+02	-2.040E+02	 2.459E+02	 5.457E-01	 2.411E+02	 2.315E+00	 1.513E+01
    9.3000	 1.496E+01	-4.001E+00	 0.000E+00	 1.880E+00	-2.126E-01	 2.181E+01	-4.571E+00	 5.450E+00	-2.247E+00	 8.735E+00	 7.053E+00	 8.576E+00	 7.544E+02	 8.168E+01	 3.340E+01	-4.012E+02	 1.528E+03	-1.833E+02	-1.840E+02	 2.365E+02	 5.480E-01	 2.301E+02	 3.058E+00	 1.547E+01
    9.3500	 1.503E+01	-4.137E+00	 0.000E+00	 1.856E+00	-2.228E-01	 2.167E+01	-4.505E+00	 5.580E+00	-2.174E+00	 8.993E+00	 6.947E+00	 8.504E+00	 7.481E+02	 8.073E+01	 3.189E+01	-3.828E+02	 1.510E+03	-2.040E+02	-1.613E+02	 2.271E+02	 4.613E-01	 2.190E+02	 3.627E+00	 1.582E+01
    9.4000	 1.509E+01	-4.274E+00	 0.000E+00	 1.828E+00	-2.343E-01	 2.156E+01	-4.408E+00	 5.638E+00	-2.095E+00	 9.253E+00	 6.779E+00	 8.360E+00	 7.354E+02	 7.963E+01	 2.988E+01	-3.584E+02	 1.490E+03	-2.219E+02	-1.362E+02	 2.180E+02	 4.147E-01	 2.078E+02	 3.721E+00	 1.618E+01
    9.4500	 1.516E+01	-4.415E+00	 0.000E+00	 1.795E+00	-2.469E-01	 2.159E+01	-4.271E+00	 5.627E+00	-2.008E+00	 9.514E+00	 6.583E+00	 8.178E+00	 7.194E+02	 7.839E+01	 2.739E+01	-3.282E+02	 1.467E+03	-2.368E+02	-1.091E+02	 2.091E+02	 4.165E-01	 1.969E+02	 3.323E+00	 1.655E+01
    9.5000	 1.523E+01	-4.556E+00	 0.000E+00	 1.758E+00	-2.602E-01	 2.169E+01	-4.084E+00	 5.591E+00	-1.920E+00	 9.774E+00	 6.430E+00	 7.992E+00	 7.030E+02	 7.706E+01	 2.447E+01	-2.928E+02	 1.442E+03	-2.485E+02	-8.031E+01	 2.006E+02	 3.644E-01	 1.867E+02	 2.680E+00	 1.693E+01
    9.5500	 1.529E+01	-4.702E+00	 0.000E+00	 1.717E+00	-2.741E-01	 2.155E+01	-3.868E+00	 5.520E+00	-1.834E+00	 1.003E+01	 6.325E+00	 7.825E+00	 6.883E+02	 7.612E+01	 2.106E+01	-2.524E+02	 1.418E+03	-2.567E+02	-5.010E+01	 1.923E+02	 1.043E-01	 1.776E+02	 2.120E+00	 1.733E+01
    9.6000	 1.536E+01	-4.849E+00	 0.000E+00	 1.673E+00	-2.883E-01	 2.161E+01	-3.729E+00	 5.417E+00	-1.726E+00	 1.029E+01	 5.980E+00	 7.562E+00	 6.652E+02	 7.433E+01	 1.739E+01	-2.086E+02	 1.387E+03	-2.613E+02	-1.912E+01	 1.845E+02	-4.061E-01	 1.691E+02	 1.801E+00	 1.773E+01
    9.6500	 1.542E+01	-4.998E+00	 0.000E+00	 1.626E+00	-3.026E-01	 2.149E+01	-3.530E+00	 5.265E+00	-1.627E+00	 1.055E+01	 5.767E+00	 7.322E+00	 6.441E+02	 7.282E+01	 1.337E+01	-1.611E+02	 1.357E+03	-2.622E+02	 1.240E+01	 1.773E+02	-1.085E+00	 1.615E+02	 1.516E+00	 1.814E+01
    9.7000	 1.549E+01	-5.150E+00	 0.000E+00	 1.576E+00	-3.171E-01	 2.128E+01	-3.302E+00	 5.078E+00	-1.528E+00	 1.081E+01	 5.524E+00	 7.110E+00	 6.254E+02	 7.141E+01	 9.089E+00	-1.108E+02	 1.326E+03	-2.592E+02	 4.388E+01	 1.708E+02	-1.783E+00	 1.546E+02	 9.675E-01	 1.855E+01
    9.7500	 1.555E+01	-5.304E+00	 0.000E+00	 1.525E+00	-3.315E-01	 2.104E+01	-3.007E+00	 4.875E+00	-1.425E+00	 1.107E+01	 5.299E+00	 6.883E+00	 6.055E+02	 7.012E+01	 4.633E+00	-5.843E+01	 1.295E+03	-2.523E+02	 7.480E+01	 1.649E+02	-2.419E+00	 1.484E+02	-9.814E-03	 1.898E+01
    9.8000	 1.561E+01	-5.460E+00	 0.000E+00	 1.472E+00	-3.454E-01	 2.072E+01	-2.711E+00	 4.652E+00	-1.320E+00	 1.133E+01	 4.971E+00	 6.521E+00	 5.736E+02	 6.899E+01	 5.101E-02	-4.997E+00	 1.265E+03	-2.415E+02	 1.047E+02	 1.596E+02	-3.047E+00	 1.429E+02	-1.311E+00	 1.941E+01
    9.8500	 1.567E+01	-5.619E+00	 0.000E+00	 1.418E+00	-3.585E-01	 2.032E+01	-2.460E+00	 4.416E+00	-1.216E+00	 1.158E+01	 4.494E+00	 6.038E+00	 5.311E+02	 6.800E+01	-4.593E+00	 4.871E+01	 1.236E+03	-2.271E+02	 1.331E+02	 1.549E+02	-3.741E+00	 1.383E+02	-2.696E+00	 1.984E+01
    9.9000	 1.573E+01	-5.780E+00	 0.000E+00	 1.364E+00	-3.710E-01	 1.985E+01	-2.201E+00	 4.167E+00	-1.120E+00	 1.183E+01	 4.058E+00	 5.543E+00	 4.876E+02	 6.711E+01	-9.212E+00	 1.020E+02	 1.208E+03	-2.092E+02	 1.596E+02	 1.507E+02	-4.536E+00	 1.345E+02	-3.953E+00	 2.029E+01
    9.9500	 1.579E+01	-5.943E+00	 0.000E+00	 1.311E+00	-3.828E-01	 1.922E+01	-1.909E+00	 3.920E+00	-1.027E+00	 1.207E+01	 3.696E+00	 5.141E+00	 4.522E+02	 6.636E+01	-1.375E+01	 1.545E+02	 1.182E+03	-1.880E+02	 1.837E+02	 1.472E+02	-5.422E+00	 1.314E+02	-5.012E+00	 2.074E+01
   10.0000	 1.585E+01	-6.108E+00	 0.000E+00	 1.259E+00	-3.939E-01	 1.851E+01	-1.568E+00	 3.681E+00	-9.383E-01	 1.231E+01	 3.391E+00	 4.835E+00	 4.253E+02	 6.565E+01	-1.814E+01	 2.052E+02	 1.156E+03	-1.638E+02	 2.051E+02	 1.442E+02	-6.348E+00	 1.290E+02	-5.924E+00	 2.119E+01
   10.0500	 1.590E+01	-6.276E+00	 0.000E+00	 1.208E+00	-4.030E-01	 1.813E+01	-1.211E+00	 3.624E+00	-8.691E-01	 1.250E+01	 3.304E+00	 4.343E+00	 3.820E+02	 6.523E+01	-2.231E+01	 2.532E+02	 1.133E+03	-1.372E+02	 2.234E+02	 1.417E+02	-7.314E+00	 1.273E+02	-6.774E+00	 2.166E+01
   10.1000	 1.596E+01	-6.445E+00	 0.000E+00	 1.160E+00	-4.110E-01	 1.749E+01	-9.608E-01	 3.494E+00	-7.752E-01	 1.268E+01	 2.928E+00	 3.986E+00	 3.507E+02	 6.481E+01	-2.619E+01	 2.978E+02	 1.111E+03	-1.084E+02	 2.382E+02	 1.399E+02	-8.141E+00	 1.261E+02	-7.772E+00	 2.214E+01
   10.1500	 1.601E+01	-6.617E+00	 0.000E+00	 1.116E+00	-4.179E-01	 1.655E+01	-6.980E-01	 3.401E+00	-6.880E-01	 1.285E+01	 2.617E+00	 3.658E+00	 3.218E+02	 6.451E+01	-2.969E+01	 3.379E+02	 1.092E+03	-7.800E+01	 2.494E+02	 1.385E+02	-8.857E+00	 1.255E+02	-8.878E+00	 2.264E+01
   10.2000	 1.606E+01	-6.790E+00	 0.000E+00	 1.074E+00	-4.232E-01	 1.565E+01	-5.011E-01	 3.248E+00	-6.100E-01	 1.302E+01	 2.378E+00	 3.363E+00	 2.958E+02	 6.434E+01	-3.274E+01	 3.725E+02	 1.074E+03	-4.640E+01	 2.568E+02	 1.378E+02	-9.524E+00	 1.254E+02	-9.909E+00	 2.314E+01