
FAST Summary File

Predictions were generated on 18-Jul-2024 at 16:42:52 using OpenFAST, compiled on Jul 16 2024 at 19:03:07 as a 64-bit application using double precision at commit 3.5.TEST-1358-g035554b1-dirty
  run with
    NWTC Subroutine Library
    InflowWind
    ElastoDyn
    AeroDyn
    SeaState
    HydroDyn
    MoorDyn (v2.2.2, 2024-01-16)
Description from the FAST input file: 
  Floating MHK turbine, based on the RM1 tidal current rotor

Interpolation order for input/output time histories: 2 (quadratic)
Number of correction iterations:  5
Number of rows in Jacobian matrix used for coupling ElastoDyn to HydroDyn:     12


   Requested Time Steps  
  -------------------------------------------------
  Component          Time Step (s)    Subcycles (-)
  -----------------  ---------------  -------------
  FAST (glue code)    3.000E-03
  InflowWind          3.000E-03              1
  ElastoDyn           3.000E-03              1
  AeroDyn             3.000E-03              1
  SeaState            3.000E-03              1
  HydroDyn            3.000E-03              1
  MoorDyn             3.000E-03              1
  FAST output files   3.000E-02             10^-1


   Requested Channels in FAST Output File(s)  
  --------------------------------------------
  Number  Name                  Units                 Generated by
  ------  --------------------  --------------------  ------------
       1  Time                  (s)                   OpenFAST
       2  PtfmSurge             (m)                   ElastoDyn
       3  PtfmSway              (m)                   ElastoDyn
       4  PtfmHeave             (m)                   ElastoDyn
       5  PtfmRoll              (deg)                 ElastoDyn
       6  PtfmPitch             (deg)                 ElastoDyn
       7  PtfmYaw               (deg)                 ElastoDyn
       8  TwrTpTDxi             (m)                   ElastoDyn
       9  TwrTpTDyi             (m)                   ElastoDyn
      10  TwrTpTDzi             (m)                   ElastoDyn
      11  OoPDefl1              (m)                   ElastoDyn
      12  TwN1Fbx               (N/m)                 AeroDyn
      13  TwN3Fby               (N/m)                 AeroDyn
      14  TwN4Fbz               (N/m)                 AeroDyn
      15  TwN1Mbx               (N-m/m)               AeroDyn
      16  TwN2Mby               (N-m/m)               AeroDyn
      17  TwN3Mbz               (N-m/m)               AeroDyn
      18  B2N4Fbn               (N/m)                 AeroDyn
      19  B1N7Fbt               (N/m)                 AeroDyn
      20  B2N8Fbs               (N/m)                 AeroDyn
      21  B1N2Mbn               (N-m/m)               AeroDyn
      22  B2N3Mbt               (N-m/m)               AeroDyn
      23  B1N6Mbs               (N-m/m)               AeroDyn
      24  B1FldFz               (N)                   AeroDyn
      25  B2FldMx               (N-m)                 AeroDyn
      26  HbFbx                 (N)                   AeroDyn
      27  HbFby                 (N)                   AeroDyn
      28  HbFbz                 (N)                   AeroDyn
      29  HbMbx                 (N-m)                 AeroDyn
      30  HbMby                 (N-m)                 AeroDyn
      31  HbMbz                 (N-m)                 AeroDyn
      32  NcFbx                 (N)                   AeroDyn
      33  NcFby                 (N)                   AeroDyn
      34  NcFbz                 (N)                   AeroDyn
      35  NcMbx                 (N-m)                 AeroDyn
      36  NcMby                 (N-m)                 AeroDyn
      37  NcMbz                 (N-m)                 AeroDyn
      38  NcFdx                 (N)                   AeroDyn
      39  NcFdy                 (N)                   AeroDyn
      40  NcFdz                 (N)                   AeroDyn
      41  NcMdx                 (N-m)                 AeroDyn
      42  NcMdy                 (N-m)                 AeroDyn
      43  NcMdz                 (N-m)                 AeroDyn
      44  NcFxi                 (N)                   AeroDyn
      45  NcFyi                 (N)                   AeroDyn
      46  NcFzi                 (N)                   AeroDyn
      47  NcMxi                 (N-m)                 AeroDyn
      48  NcMyi                 (N-m)                 AeroDyn
      49  NcMzi                 (N-m)                 AeroDyn
      50  RtFldFxh              (N)                   AeroDyn
      51  RtFldFyh              (N)                   AeroDyn
      52  RtFldFzg              (N)                   AeroDyn
      53  RtFldMxh              (N-m)                 AeroDyn
      54  RtFldMyg              (N-m)                 AeroDyn
      55  RtFldMzh              (N-m)                 AeroDyn
      56  B1N3SigCr             (-)                   AeroDyn
      57  B2N5SigCr             (-)                   AeroDyn
      58  B1N2SgCav             (-)                   AeroDyn
      59  B2N6SgCav             (-)                   AeroDyn
      60  Wave1Elev             (m)                   SeaState
      61  HydroFxi              (N)                   HydroDyn
      62  HydroFyi              (N)                   HydroDyn
      63  HydroFzi              (N)                   HydroDyn
      64  FAIRTEN1              (N)                   MoorDyn
      65  FAIRTEN2              (N)                   MoorDyn
      66  FAIRTEN3              (N)                   MoorDyn
      67  FAIRTEN4              (N)                   MoorDyn
      68  FAIRTEN5              (N)                   MoorDyn
      69  FAIRTEN6              (N)                   MoorDyn
      70  ANCHTEN1              (N)                   MoorDyn
      71  ANCHTEN2              (N)                   MoorDyn
      72  ANCHTEN3              (N)                   MoorDyn
      73  ANCHTEN4              (N)                   MoorDyn
      74  ANCHTEN5              (N)                   MoorDyn
      75  ANCHTEN6              (N)                   MoorDyn
      76  P1FX                  (N)                   MoorDyn
      77  P1FY                  (N)                   MoorDyn
      78  P1FZ                  (N)                   MoorDyn
      79  P2FX                  (N)                   MoorDyn
      80  P2FY                  (N)                   MoorDyn
      81  P2FZ                  (N)                   MoorDyn
      82  P3FX                  (N)                   MoorDyn
      83  P3FY                  (N)                   MoorDyn
      84  P3FZ                  (N)                   MoorDyn
      85  P4FX                  (N)                   MoorDyn
      86  P4FY                  (N)                   MoorDyn
      87  P4FZ                  (N)                   MoorDyn
      88  P5FX                  (N)                   MoorDyn
      89  P5FY                  (N)                   MoorDyn
      90  P5FZ                  (N)                   MoorDyn
      91  P6FX                  (N)                   MoorDyn
      92  P6FY                  (N)                   MoorDyn
      93  P6FZ                  (N)                   MoorDyn
      94  P7FX                  (N)                   MoorDyn
      95  P7FY                  (N)                   MoorDyn
      96  P7FZ                  (N)                   MoorDyn
      97  P7PX                  (m)                   MoorDyn
      98  P7PY                  (m)                   MoorDyn
      99  P7PZ                  (m)                   MoorDyn
     100  P8FX                  (N)                   MoorDyn
     101  P8FY                  (N)                   MoorDyn
     102  P8FZ                  (N)                   MoorDyn
     103  P8PX                  (m)                   MoorDyn
     104  P8PY                  (m)                   MoorDyn
     105  P8PZ                  (m)                   MoorDyn
     106  P9FX                  (N)                   MoorDyn
     107  P9FY                  (N)                   MoorDyn
     108  P9FZ                  (N)                   MoorDyn
     109  P9PX                  (m)                   MoorDyn
     110  P9PY                  (m)                   MoorDyn
     111  P9PZ                  (m)                   MoorDyn
     112  P10FX                 (N)                   MoorDyn
     113  P10FY                 (N)                   MoorDyn
     114  P10FZ                 (N)                   MoorDyn
     115  P10PX                 (m)                   MoorDyn
     116  P10PY                 (m)                   MoorDyn
     117  P10PZ                 (m)                   MoorDyn
     118  P11FX                 (N)                   MoorDyn
     119  P11FY                 (N)                   MoorDyn
     120  P11FZ                 (N)                   MoorDyn
     121  P11PX                 (m)                   MoorDyn
     122  P11PY                 (m)                   MoorDyn
     123  P11PZ                 (m)                   MoorDyn
     124  P12FX                 (N)                   MoorDyn
     125  P12FY                 (N)                   MoorDyn
     126  P12FZ                 (N)                   MoorDyn
     127  P12PX                 (m)                   MoorDyn
     128  P12PY                 (m)                   MoorDyn
     129  P12PZ                 (m)                   MoorDyn
     130  L1N1PZ                (m)                   MoorDyn
     131  L1N2PZ                (m)                   MoorDyn
     132  L1N3PZ                (m)                   MoorDyn
     133  L1N4PZ                (m)                   MoorDyn
     134  L1N5PZ                (m)                   MoorDyn
     135  L1N6PZ                (m)                   MoorDyn
     136  L1N7PZ                (m)                   MoorDyn
     137  L1N8PZ                (m)                   MoorDyn
     138  L1N9PZ                (m)                   MoorDyn
     139  L1N10PZ               (m)                   MoorDyn
     140  L1N11PZ               (m)                   MoorDyn
     141  L1N12PZ               (m)                   MoorDyn
     142  L1N13PZ               (m)                   MoorDyn
     143  L1N14PZ               (m)                   MoorDyn
     144  L1N15PZ               (m)                   MoorDyn
     145  L1N16PZ               (m)                   MoorDyn
     146  L1N17PZ               (m)                   MoorDyn
     147  L1N18PZ               (m)                   MoorDyn
     148  L1N19PZ               (m)                   MoorDyn
     149  L1N20PZ               (m)                   MoorDyn
     150  L1N21PZ               (m)                   MoorDyn
     151  L1N22PZ               (m)                   MoorDyn
     152  L1N23PZ               (m)                   MoorDyn
     153  L1N24PZ               (m)                   MoorDyn
     154  L1N25PZ               (m)                   MoorDyn
     155  L1N26PZ               (m)                   MoorDyn
     156  L1N27PZ               (m)                   MoorDyn
     157  L1N28PZ               (m)                   MoorDyn
     158  L1N29PZ               (m)                   MoorDyn
     159  L1N30PZ               (m)                   MoorDyn
     160  L2N1PZ                (m)                   MoorDyn
     161  L2N2PZ                (m)                   MoorDyn
     162  L2N3PZ                (m)                   MoorDyn
     163  L2N4PZ                (m)                   MoorDyn
     164  L2N5PZ                (m)                   MoorDyn
     165  L2N6PZ                (m)                   MoorDyn
     166  L2N7PZ                (m)                   MoorDyn
     167  L2N8PZ                (m)                   MoorDyn
     168  L2N9PZ                (m)                   MoorDyn
     169  L2N10PZ               (m)                   MoorDyn
     170  L2N11PZ               (m)                   MoorDyn
     171  L2N12PZ               (m)                   MoorDyn
     172  L2N13PZ               (m)                   MoorDyn
     173  L2N14PZ               (m)                   MoorDyn
     174  L2N15PZ               (m)                   MoorDyn
     175  L2N16PZ               (m)                   MoorDyn
     176  L2N17PZ               (m)                   MoorDyn
     177  L2N18PZ               (m)                   MoorDyn
     178  L2N19PZ               (m)                   MoorDyn
     179  L2N20PZ               (m)                   MoorDyn
     180  L2N21PZ               (m)                   MoorDyn
     181  L2N22PZ               (m)                   MoorDyn
     182  L2N23PZ               (m)                   MoorDyn
     183  L2N24PZ               (m)                   MoorDyn
     184  L2N25PZ               (m)                   MoorDyn
     185  L2N26PZ               (m)                   MoorDyn
     186  L2N27PZ               (m)                   MoorDyn
     187  L2N28PZ               (m)                   MoorDyn
     188  L2N29PZ               (m)                   MoorDyn
     189  L2N30PZ               (m)                   MoorDyn
