
Predictions were generated on 29-Aug-2024 at 21:26:16 using OpenFAST, compiled on Aug 29 2024 at 21:05:22 as a 64-bit application using double precision at commit -128-NOTFOUND
 linked with  NWTC Subroutine Library; ElastoDyn; InflowWind; AeroDyn; SeaState; HydroDyn; MoorDyn (v2.2.2, 2024-01-16)

Description from the FAST input file: Floating MHK turbine, based on the RM1 tidal current rotor

Time	PtfmSurge	PtfmSway	PtfmHeave	PtfmRoll	PtfmPitch	PtfmYaw	TwrTpTDxi	TwrTpTDyi	TwrTpTDzi	OoPDefl1	TwN1Fbx	TwN3Fby	TwN4Fbz	TwN1Mbx	TwN2Mby	TwN3Mbz	B2N4Fbn	B1N7Fbt	B2N8Fbs	B1N2Mbn	B2N3Mbt	B1N6Mbs	B1FldFz	B2FldMx	HbFbx	HbFby	HbFbz	HbMbx	HbMby	HbMbz	NcFbx	NcFby	NcFbz	NcMbx	NcMby	NcMbz	NcFdx	NcFdy	NcFdz	NcMdx	NcMdy	NcMdz	NcFxi	NcFyi	NcFzi	NcMxi	NcMyi	NcMzi	RtFldFxh	RtFldFyh	RtFldFzg	RtFldMxh	RtFldMyg	RtFldMzh	B1N3SigCr	B2N5SigCr	B1N2SgCav	B2N6SgCav	Wave1Elev	HydroFxi	HydroFyi	HydroFzi	FAIRTEN1	FAIRTEN2	FAIRTEN3	FAIRTEN4	FAIRTEN5	FAIRTEN6	ANCHTEN1	ANCHTEN2	ANCHTEN3	ANCHTEN4	ANCHTEN5	ANCHTEN6	P1FX	P1FY	P1FZ	P2FX	P2FY	P2FZ	P3FX	P3FY	P3FZ	P4FX	P4FY	P4FZ	P5FX	P5FY	P5FZ	P6FX	P6FY	P6FZ	P7FX	P7FY	P7FZ	P7PX	P7PY	P7PZ	P8FX	P8FY	P8FZ	P8PX	P8PY	P8PZ	P9FX	P9FY	P9FZ	P9PX	P9PY	P9PZ	P10FX	P10FY	P10FZ	P10PX	P10PY	P10PZ	P11FX	P11FY	P11FZ	P11PX	P11PY	P11PZ	P12FX	P12FY	P12FZ	P12PX	P12PY	P12PZ	L1N1PZ	L1N2PZ	L1N3PZ	L1N4PZ	L1N5PZ	L1N6PZ	L1N7PZ	L1N8PZ	L1N9PZ	L1N10PZ	L1N11PZ	L1N12PZ	L1N13PZ	L1N14PZ	L1N15PZ	L1N16PZ	L1N17PZ	L1N18PZ	L1N19PZ	L1N20PZ	L1N21PZ	L1N22PZ	L1N23PZ	L1N24PZ	L1N25PZ	L1N26PZ	L1N27PZ	L1N28PZ	L1N29PZ	L1N30PZ	L2N1PZ	L2N2PZ	L2N3PZ	L2N4PZ	L2N5PZ	L2N6PZ	L2N7PZ	L2N8PZ	L2N9PZ	L2N10PZ	L2N11PZ	L2N12PZ	L2N13PZ	L2N14PZ	L2N15PZ	L2N16PZ	L2N17PZ	L2N18PZ	L2N19PZ	L2N20PZ	L2N21PZ	L2N22PZ	L2N23PZ	L2N24PZ	L2N25PZ	L2N26PZ	L2N27PZ	L2N28PZ	L2N29PZ	L2N30PZ
(s)	(m)	(m)	(m)	(deg)	(deg)	(deg)	(m)	(m)	(m)	(m)	(N/m)	(N/m)	(N/m)	(N-m/m)	(N-m/m)	(N-m/m)	(N/m)	(N/m)	(N/m)	(N-m/m)	(N-m/m)	(N-m/m)	(N)	(N-m)	(N)	(N)	(N)	(N-m)	(N-m)	(N-m)	(N)	(N)	(N)	(N-m)	(N-m)	(N-m)	(N)	(N)	(N)	(N-m)	(N-m)	(N-m)	(N)	(N)	(N)	(N-m)	(N-m)	(N-m)	(N)	(N)	(N)	(N-m)	(N-m)	(N-m)	(-)	(-)	(-)	(-)	(m)	(N)	(N)	(N)	(N)	(N)	(N)	(N)	(N)	(N)	(N)	(N)	(N)	(N)	(N)	(N)	(N)	(N)	(N)	(N)	(N)	(N)	(N)	(N)	(N)	(N)	(N)	(N)	(N)	(N)	(N)	(N)	(N)	(N)	(N)	(N)	(N)	(m)	(m)	(m)	(N)	(N)	(N)	(m)	(m)	(m)	(N)	(N)	(N)	(m)	(m)	(m)	(N)	(N)	(N)	(m)	(m)	(m)	(N)	(N)	(N)	(m)	(m)	(m)	(N)	(N)	(N)	(m)	(m)	(m)	(m)	(m)	(m)	(m)	(m)	(m)	(m)	(m)	(m)	(m)	(m)	(m)	(m)	(m)	(m)	(m)	(m)	(m)	(m)	(m)	(m)	(m)	(m)	(m)	(m)	(m)	(m)	(m)	(m)	(m)	(m)	(m)	(m)	(m)	(m)	(m)	(m)	(m)	(m)	(m)	(m)	(m)	(m)	(m)	(m)	(m)	(m)	(m)	(m)	(m)	(m)	(m)	(m)	(m)	(m)	(m)	(m)	(m)	(m)	(m)
    0.0000	 2.000E+01	 0.000E+00	 0.000E+00	 0.000E+00	 0.000E+00	 0.000E+00	 2.000E+01	-0.000E+00	 0.000E+00	 0.000E+00	 1.023E-13	 0.000E+00	 1.253E-29	 0.000E+00	-1.023E-13	 0.000E+00	 2.843E+02	 1.076E+02	-1.264E+04	-4.015E+03	 1.616E+03	-2.314E+00	-9.595E+04	 1.459E+05	 2.358E-27	-5.225E-12	 6.231E+04	 2.422E-11	-1.608E+04	-2.954E-12	-2.455E-12	 0.000E+00	 4.081E+05	 0.000E+00	-1.668E+05	 0.000E+00	 4.379E+03	 0.000E+00	 0.000E+00	 0.000E+00	 0.000E+00	 0.000E+00	 4.379E+03	 0.000E+00	 4.081E+05	 0.000E+00	-1.668E+05	 0.000E+00	 4.223E+05	-6.645E+03	 1.239E+05	 4.039E+05	 1.441E+05	 1.567E-10	 3.349E+01	 1.622E+01	 4.252E+00	 1.442E+00	 9.414E-01	 1.156E+06	-6.859E+00	 2.675E+07	 6.077E+05	 5.314E+05	 6.077E+05	 2.138E+05	 2.285E+05	 2.138E+05	 3.903E+05	 3.046E+05	 3.903E+05	 1.465E+04	 1.749E+04	 1.465E+04	 3.624E+05	 1.442E+05	-1.506E+04	 3.042E+05	 0.000E+00	-1.425E+04	 3.624E+05	-1.442E+05	-1.506E+04	 1.767E+02	-7.486E+01	-1.465E+04	 1.061E+04	 0.000E+00	-1.391E+04	 1.767E+02	 7.486E+01	-1.465E+04	-3.673E+05	-1.184E+05	-4.694E+05	-1.400E+01	 0.000E+00	-1.000E+01	-3.217E+05	 0.000E+00	-4.231E+05	-1.400E+01	 0.000E+00	-1.000E+01	-3.673E+05	 1.184E+05	-4.694E+05	-1.400E+01	 0.000E+00	-1.000E+01	-3.583E+04	-6.507E+03	-2.106E+05	 5.400E+01	 0.000E+00	-1.000E+01	-4.056E+04	 0.000E+00	-2.248E+05	 5.400E+01	 0.000E+00	-1.000E+01	-3.583E+04	 6.507E+03	-2.106E+05	 5.400E+01	 0.000E+00	-1.000E+01	-5.001E+01	-5.001E+01	-5.001E+01	-5.001E+01	-5.001E+01	-5.001E+01	-5.001E+01	-5.001E+01	-5.001E+01	-5.001E+01	-5.001E+01	-5.001E+01	-5.001E+01	-5.000E+01	-4.985E+01	-4.926E+01	-4.828E+01	-4.693E+01	-4.524E+01	-4.321E+01	-4.088E+01	-3.827E+01	-3.541E+01	-3.231E+01	-2.901E+01	-2.550E+01	-2.184E+01	-1.802E+01	-1.407E+01	-1.000E+01	-5.001E+01	-5.001E+01	-5.001E+01	-5.001E+01	-5.001E+01	-5.001E+01	-5.001E+01	-5.001E+01	-5.001E+01	-5.001E+01	-5.001E+01	-5.001E+01	-5.001E+01	-5.000E+01	-4.989E+01	-4.930E+01	-4.828E+01	-4.690E+01	-4.519E+01	-4.313E+01	-4.076E+01	-3.812E+01	-3.522E+01	-3.211E+01	-2.880E+01	-2.531E+01	-2.166E+01	-1.787E+01	-1.398E+01	-1.000E+01
    0.0300	 2.000E+01	 3.689E-09	-8.148E-06	 2.105E-08	-2.692E-04	 5.795E-08	 2.000E+01	-9.509E-06	-8.100E-06	 3.897E-02	 3.895E-02	 3.298E-06	 1.106E-06	 5.102E-03	-2.385E-02	 3.900E-07	 5.085E+02	 1.540E+02	-1.264E+04	-4.021E+03	 1.619E+03	-1.355E+01	-9.648E+04	 4.719E+04	 1.377E+01	 2.632E+03	 6.227E+04	-1.038E+00	-1.607E+04	 5.849E+02	 6.616E+00	 1.602E+00	 4.081E+05	-9.829E-06	-1.668E+05	 6.695E-01	 3.967E+03	 2.512E+00	-7.680E-02	 2.341E-18	 3.303E-02	 1.080E+00	 3.966E+03	 2.476E+00	 4.081E+05	 1.331E-04	-1.668E+05	 1.080E+00	 2.237E+05	 3.647E+03	 1.237E+05	 1.383E+05	 6.148E+04	 1.261E+03	 3.327E+01	 1.593E+01	 3.757E+00	 1.153E+00	 9.307E-01	 1.132E+06	 3.005E+00	 2.680E+07	 5.934E+05	 5.068E+05	 5.934E+05	 2.250E+05	 2.438E+05	 2.250E+05	 3.934E+05	 2.956E+05	 3.934E+05	 1.465E+04	 1.756E+04	 1.465E+04	 3.653E+05	 1.452E+05	-1.506E+04	 2.952E+05	 0.000E+00	-1.424E+04	 3.653E+05	-1.452E+05	-1.506E+04	 1.567E+02	-6.642E+01	-1.465E+04	 1.072E+04	-0.000E+00	-1.391E+04	 1.567E+02	 6.642E+01	-1.465E+04	-3.586E+05	-1.158E+05	-4.584E+05	-1.400E+01	-2.703E-08	-1.000E+01	-3.066E+05	 2.697E-03	-4.035E+05	-1.400E+01	-2.703E-08	-1.000E+01	-3.586E+05	 1.158E+05	-4.584E+05	-1.400E+01	-2.703E-08	-1.000E+01	-3.762E+04	-6.841E+03	-2.217E+05	 5.400E+01	 4.175E-08	-1.000E+01	-4.322E+04	-1.902E-03	-2.400E+05	 5.400E+01	 4.175E-08	-1.000E+01	-3.762E+04	 6.841E+03	-2.217E+05	 5.400E+01	 4.175E-08	-1.000E+01	-5.001E+01	-5.001E+01	-5.001E+01	-5.001E+01	-5.001E+01	-5.001E+01	-5.001E+01	-5.001E+01	-5.001E+01	-5.001E+01	-5.001E+01	-5.001E+01	-5.001E+01	-5.000E+01	-4.985E+01	-4.926E+01	-4.828E+01	-4.693E+01	-4.524E+01	-4.321E+01	-4.088E+01	-3.827E+01	-3.541E+01	-3.231E+01	-2.901E+01	-2.550E+01	-2.183E+01	-1.801E+01	-1.407E+01	-1.000E+01	-5.001E+01	-5.001E+01	-5.001E+01	-5.001E+01	-5.001E+01	-5.001E+01	-5.001E+01	-5.001E+01	-5.001E+01	-5.001E+01	-5.001E+01	-5.001E+01	-5.001E+01	-5.000E+01	-4.989E+01	-4.929E+01	-4.828E+01	-4.690E+01	-4.518E+01	-4.313E+01	-4.076E+01	-3.812E+01	-3.523E+01	-3.211E+01	-2.880E+01	-2.530E+01	-2.165E+01	-1.787E+01	-1.398E+01	-1.000E+01
    0.0600	 2.000E+01	 1.213E-08	-2.994E-05	 3.837E-08	-1.050E-03	 8.488E-07	 2.001E+01	-9.064E-05	-2.860E-05	 6.476E-02	 1.681E-01	-4.784E-03	 4.312E-05	 1.936E-02	-8.798E-02	 4.940E-06	 6.388E+02	 2.007E+02	-1.264E+04	-4.028E+03	 1.620E+03	-2.082E+01	-9.741E+04	 5.736E+04	 3.538E+01	 5.302E+03	 6.214E+04	-1.166E+00	-1.604E+04	 1.178E+03	 9.120E+01	 2.460E+00	 4.081E+05	 5.019E-06	-1.668E+05	 9.982E-01	 3.465E+03	 8.219E+00	-8.452E-01	 8.674E-19	 3.634E-01	 3.534E+00	 3.456E+03	 8.237E+00	 4.081E+05	 1.502E-03	-1.668E+05	 3.534E+00	 2.799E+05	 6.768E+03	 1.228E+05	 1.716E+05	 1.711E+05	 2.488E+03	 3.236E+01	 1.548E+01	 3.160E+00	 1.186E+00	 9.201E-01	 1.100E+06	-2.346E+01	 2.678E+07	 5.825E+05	 5.103E+05	 5.825E+05	 2.245E+05	 2.407E+05	 2.245E+05	 3.742E+05	 2.913E+05	 3.742E+05	 1.465E+04	 1.765E+04	 1.465E+04	 3.475E+05	 1.380E+05	-1.504E+04	 2.910E+05	 0.000E+00	-1.424E+04	 3.475E+05	-1.380E+05	-1.504E+04	 1.372E+02	-5.814E+01	-1.465E+04	 1.087E+04	-0.000E+00	-1.391E+04	 1.372E+02	 5.814E+01	-1.465E+04	-3.519E+05	-1.139E+05	-4.500E+05	-1.400E+01	-4.848E-07	-1.000E+01	-3.089E+05	 4.801E-02	-4.062E+05	-1.400E+01	-4.848E-07	-1.000E+01	-3.519E+05	 1.139E+05	-4.500E+05	-1.400E+01	-4.848E-07	-1.000E+01	-3.731E+04	-6.790E+03	-2.213E+05	 5.400E+01	 5.225E-07	-9.999E+00	-4.240E+04	-2.341E-02	-2.369E+05	 5.400E+01	 5.225E-07	-9.999E+00	-3.730E+04	 6.790E+03	-2.213E+05	 5.400E+01	 5.225E-07	-9.999E+00	-5.001E+01	-5.001E+01	-5.001E+01	-5.001E+01	-5.001E+01	-5.001E+01	-5.001E+01	-5.001E+01	-5.001E+01	-5.001E+01	-5.001E+01	-5.001E+01	-5.001E+01	-5.000E+01	-4.985E+01	-4.926E+01	-4.828E+01	-4.694E+01	-4.524E+01	-4.321E+01	-4.088E+01	-3.828E+01	-3.541E+01	-3.232E+01	-2.901E+01	-2.550E+01	-2.183E+01	-1.801E+01	-1.407E+01	-1.000E+01	-5.001E+01	-5.001E+01	-5.001E+01	-5.001E+01	-5.001E+01	-5.001E+01	-5.001E+01	-5.001E+01	-5.001E+01	-5.001E+01	-5.001E+01	-5.001E+01	-5.001E+01	-5.000E+01	-4.989E+01	-4.929E+01	-4.828E+01	-4.690E+01	-4.518E+01	-4.313E+01	-4.077E+01	-3.813E+01	-3.524E+01	-3.211E+01	-2.880E+01	-2.530E+01	-2.165E+01	-1.787E+01	-1.398E+01	-1.000E+01
    0.0900	 2.000E+01	 2.477E-08	-5.991E-05	-9.663E-08	-2.342E-03	 2.905E-06	 2.001E+01	-2.551E-04	-5.226E-05	 7.746E-02	 3.071E-01	-1.300E-02	 2.381E-04	 5.730E-02	-1.192E-01	 4.434E-05	 6.518E+02	 2.479E+02	-1.263E+04	-4.035E+03	 1.620E+03	-2.389E+01	-9.810E+04	 4.830E+04	 8.719E+01	 8.017E+03	 6.193E+04	-2.038E+00	-1.598E+04	 1.782E+03	 3.640E+02	 8.157E+00	 4.080E+05	 4.593E-06	-1.668E+05	 3.328E+00	 3.090E+03	 1.442E+01	-2.937E+00	-5.204E-18	 1.263E+00	 6.200E+00	 3.066E+03	 1.443E+01	 4.081E+05	 1.059E-03	-1.668E+05	 6.200E+00	 2.822E+05	 8.447E+03	 1.213E+05	 1.721E+05	 3.701E+05	 3.779E+03	 3.128E+01	 1.512E+01	 2.729E+00	 1.134E+00	 9.094E-01	 1.073E+06	 2.385E+02	 2.678E+07	 5.722E+05	 5.267E+05	 5.723E+05	 2.217E+05	 2.368E+05	 2.217E+05	 3.497E+05	 3.050E+05	 3.497E+05	 1.465E+04	 1.775E+04	 1.465E+04	 3.247E+05	 1.288E+05	-1.502E+04	 3.047E+05	 0.000E+00	-1.426E+04	 3.247E+05	-1.288E+05	-1.502E+04	 1.156E+02	-4.900E+01	-1.465E+04	 1.103E+04	-0.000E+00	-1.391E+04	 1.156E+02	 4.900E+01	-1.465E+04	-3.457E+05	-1.120E+05	-4.420E+05	-1.400E+01	-1.716E-06	-1.000E+01	-3.191E+05	 1.746E-01	-4.191E+05	-1.400E+01	-1.716E-06	-1.000E+01	-3.457E+05	 1.120E+05	-4.421E+05	-1.400E+01	-1.716E-06	-1.000E+01	-3.659E+04	-6.664E+03	-2.186E+05	 5.400E+01	 1.732E-06	-9.999E+00	-4.145E+04	-7.602E-02	-2.332E+05	 5.400E+01	 1.732E-06	-9.999E+00	-3.659E+04	 6.664E+03	-2.186E+05	 5.400E+01	 1.732E-06	-9.999E+00	-5.001E+01	-5.001E+01	-5.001E+01	-5.001E+01	-5.001E+01	-5.001E+01	-5.001E+01	-5.001E+01	-5.001E+01	-5.001E+01	-5.001E+01	-5.001E+01	-5.001E+01	-5.000E+01	-4.984E+01	-4.926E+01	-4.828E+01	-4.694E+01	-4.524E+01	-4.322E+01	-4.089E+01	-3.828E+01	-3.542E+01	-3.232E+01	-2.901E+01	-2.550E+01	-2.183E+01	-1.801E+01	-1.406E+01	-1.000E+01	-5.001E+01	-5.001E+01	-5.001E+01	-5.001E+01	-5.001E+01	-5.001E+01	-5.001E+01	-5.001E+01	-5.001E+01	-5.001E+01	-5.001E+01	-5.001E+01	-5.001E+01	-5.000E+01	-4.989E+01	-4.929E+01	-4.827E+01	-4.690E+01	-4.518E+01	-4.313E+01	-4.077E+01	-3.814E+01	-3.524E+01	-3.212E+01	-2.880E+01	-2.530E+01	-2.165E+01	-1.787E+01	-1.398E+01	-1.000E+01
    0.1200	 2.000E+01	-4.062E-09	-9.872E-05	-9.575E-07	-4.157E-03	 8.028E-06	 2.003E+01	-5.755E-04	-7.440E-05	 8.262E-02	 4.742E-01	-3.549E-02	 6.619E-04	 9.171E-02	-1.437E-01	 1.040E-04	 6.237E+02	 2.955E+02	-1.262E+04	-4.044E+03	 1.618E+03	-2.437E+01	-9.854E+04	 3.466E+04	 1.604E+02	 1.077E+04	 6.162E+04	-2.399E+00	-1.590E+04	 2.393E+03	 7.584E+02	 1.974E+00	 4.080E+05	 1.369E-04	-1.668E+05	 6.041E-01	 2.851E+03	 2.698E+01	-5.614E+00	 3.469E-18	 2.414E+00	 1.160E+01	 2.806E+03	 2.747E+01	 4.081E+05	 9.943E-05	-1.668E+05	 1.160E+01	 2.641E+05	 1.246E+04	 1.197E+05	 1.544E+05	 5.507E+05	 5.060E+03	 3.056E+01	 1.471E+01	 2.462E+00	 1.068E+00	 8.972E-01	 1.040E+06	 3.472E+02	 2.679E+07	 5.537E+05	 5.357E+05	 5.538E+05	 2.250E+05	 2.431E+05	 2.250E+05	 3.425E+05	 3.327E+05	 3.425E+05	 1.465E+04	 1.786E+04	 1.465E+04	 3.181E+05	 1.261E+05	-1.501E+04	 3.324E+05	 0.000E+00	-1.429E+04	 3.181E+05	-1.261E+05	-1.501E+04	 9.221E+01	-3.907E+01	-1.465E+04	 1.121E+04	-0.000E+00	-1.391E+04	 9.221E+01	 3.907E+01	-1.465E+04	-3.343E+05	-1.085E+05	-4.278E+05	-1.400E+01	-4.935E-06	-1.000E+01	-3.247E+05	 5.079E-01	-4.261E+05	-1.400E+01	-4.935E-06	-1.000E+01	-3.344E+05	 1.086E+05	-4.279E+05	-1.400E+01	-4.935E-06	-1.000E+01	-3.695E+04	-6.732E+03	-2.219E+05	 5.400E+01	 4.593E-06	-9.998E+00	-4.239E+04	-2.066E-01	-2.394E+05	 5.400E+01	 4.593E-06	-9.998E+00	-3.695E+04	 6.732E+03	-2.219E+05	 5.400E+01	 4.593E-06	-9.998E+00	-5.001E+01	-5.001E+01	-5.001E+01	-5.001E+01	-5.001E+01	-5.001E+01	-5.001E+01	-5.001E+01	-5.001E+01	-5.001E+01	-5.001E+01	-5.001E+01	-5.001E+01	-5.000E+01	-4.984E+01	-4.926E+01	-4.828E+01	-4.694E+01	-4.524E+01	-4.322E+01	-4.089E+01	-3.829E+01	-3.542E+01	-3.232E+01	-2.901E+01	-2.550E+01	-2.183E+01	-1.801E+01	-1.406E+01	-1.000E+01	-5.001E+01	-5.001E+01	-5.001E+01	-5.001E+01	-5.001E+01	-5.001E+01	-5.001E+01	-5.001E+01	-5.001E+01	-5.001E+01	-5.001E+01	-5.001E+01	-5.001E+01	-5.000E+01	-4.988E+01	-4.928E+01	-4.827E+01	-4.690E+01	-4.518E+01	-4.314E+01	-4.078E+01	-3.814E+01	-3.525E+01	-3.212E+01	-2.880E+01	-2.530E+01	-2.165E+01	-1.787E+01	-1.398E+01	-1.000E+01
    0.1500	 2.000E+01	-6.885E-08	-1.467E-04	-2.985E-06	-6.499E-03	 1.775E-05	 2.004E+01	-1.107E-03	-9.111E-05	 8.358E-02	 6.948E-01	-7.527E-02	 1.449E-03	 1.335E-01	-1.973E-01	 1.612E-04	 5.993E+02	 3.436E+02	-1.260E+04	-4.052E+03	 1.617E+03	-2.328E+01	-9.881E+04	 2.674E+04	 2.393E+02	 1.354E+04	 6.121E+04	-2.097E+00	-1.579E+04	 3.009E+03	 1.183E+03	-1.495E+01	 4.080E+05	 4.077E-04	-1.668E+05	-6.717E+00	 2.765E+03	 3.994E+01	-8.484E+00	 2.082E-17	 3.648E+00	 1.717E+01	 2.695E+03	 4.142E+01	 4.081E+05	 9.333E-03	-1.668E+05	 1.717E+01	 2.464E+05	 1.847E+04	 1.185E+05	 1.362E+05	 6.526E+05	 6.324E+03	 2.983E+01	 1.442E+01	 2.353E+00	 1.025E+00	 8.842E-01	 1.010E+06	 3.970E+02	 2.679E+07	 5.576E+05	 5.513E+05	 5.578E+05	 2.254E+05	 2.402E+05	 2.253E+05	 3.405E+05	 3.399E+05	 3.406E+05	 1.465E+04	 1.797E+04	 1.465E+04	 3.163E+05	 1.253E+05	-1.501E+04	 3.396E+05	 0.000E+00	-1.429E+04	 3.164E+05	-1.253E+05	-1.501E+04	 6.705E+01	-2.841E+01	-1.465E+04	 1.139E+04	 0.000E+00	-1.391E+04	 6.705E+01	 2.841E+01	-1.465E+04	-3.368E+05	-1.095E+05	-4.307E+05	-1.400E+01	-1.112E-05	-1.000E+01	-3.344E+05	 1.168E+00	-4.383E+05	-1.400E+01	-1.112E-05	-1.000E+01	-3.369E+05	 1.095E+05	-4.308E+05	-1.400E+01	-1.112E-05	-1.000E+01	-3.679E+04	-6.702E+03	-2.222E+05	 5.400E+01	 9.943E-06	-9.996E+00	-4.163E+04	-4.396E-01	-2.366E+05	 5.400E+01	 9.943E-06	-9.996E+00	-3.679E+04	 6.701E+03	-2.222E+05	 5.400E+01	 9.943E-06	-9.996E+00	-5.001E+01	-5.001E+01	-5.001E+01	-5.001E+01	-5.001E+01	-5.001E+01	-5.001E+01	-5.001E+01	-5.001E+01	-5.001E+01	-5.001E+01	-5.001E+01	-5.001E+01	-5.000E+01	-4.984E+01	-4.926E+01	-4.829E+01	-4.694E+01	-4.525E+01	-4.322E+01	-4.090E+01	-3.829E+01	-3.543E+01	-3.233E+01	-2.901E+01	-2.551E+01	-2.183E+01	-1.801E+01	-1.407E+01	-1.000E+01	-5.001E+01	-5.001E+01	-5.001E+01	-5.001E+01	-5.001E+01	-5.001E+01	-5.001E+01	-5.001E+01	-5.001E+01	-5.001E+01	-5.001E+01	-5.001E+01	-5.001E+01	-5.000E+01	-4.988E+01	-4.928E+01	-4.827E+01	-4.690E+01	-4.518E+01	-4.314E+01	-4.078E+01	-3.815E+01	-3.525E+01	-3.213E+01	-2.880E+01	-2.530E+01	-2.165E+01	-1.787E+01	-1.398E+01	-1.000E+01
    0.1800	 2.000E+01	-1.380E-07	-2.066E-04	-6.718E-06	-9.408E-03	 3.319E-05	 2.005E+01	-1.854E-03	-1.050E-04	 8.483E-02	 9.084E-01	-1.280E-01	 2.496E-03	 2.122E-01	-2.406E-01	 3.319E-04	 5.848E+02	 3.918E+02	-1.258E+04	-4.062E+03	 1.615E+03	-2.234E+01	-9.914E+04	 2.330E+04	 3.269E+02	 1.633E+04	 6.071E+04	-1.830E+00	-1.566E+04	 3.628E+03	 1.653E+03	-3.005E+01	 4.080E+05	 7.216E-04	-1.668E+05	-1.336E+01	 2.842E+03	 5.554E+01	-1.218E+01	-1.388E-17	 5.235E+00	 2.388E+01	 2.747E+03	 5.816E+01	 4.080E+05	 2.262E-02	-1.668E+05	 2.388E+01	 2.386E+05	 2.416E+04	 1.171E+05	 1.285E+05	 7.348E+05	 7.605E+03	 2.902E+01	 1.416E+01	 2.327E+00	 9.967E-01	 8.712E-01	 9.829E+05	 7.926E+02	 2.680E+07	 5.707E+05	 5.460E+05	 5.709E+05	 2.256E+05	 2.417E+05	 2.256E+05	 3.533E+05	 3.381E+05	 3.535E+05	 1.465E+04	 1.809E+04	 1.465E+04	 3.282E+05	 1.299E+05	-1.502E+04	 3.378E+05	 0.000E+00	-1.429E+04	 3.284E+05	-1.299E+05	-1.502E+04	 4.054E+01	-1.718E+01	-1.465E+04	 1.156E+04	 0.000E+00	-1.391E+04	 4.054E+01	 1.718E+01	-1.465E+04	-3.449E+05	-1.123E+05	-4.405E+05	-1.400E+01	-2.100E-05	-1.001E+01	-3.311E+05	 2.160E+00	-4.341E+05	-1.400E+01	-2.100E-05	-1.001E+01	-3.451E+05	 1.123E+05	-4.407E+05	-1.400E+01	-2.100E-05	-1.001E+01	-3.661E+04	-6.668E+03	-2.225E+05	 5.400E+01	 1.838E-05	-9.995E+00	-4.167E+04	-8.138E-01	-2.380E+05	 5.400E+01	 1.838E-05	-9.995E+00	-3.661E+04	 6.667E+03	-2.225E+05	 5.400E+01	 1.838E-05	-9.995E+00	-5.001E+01	-5.001E+01	-5.001E+01	-5.001E+01	-5.001E+01	-5.001E+01	-5.001E+01	-5.001E+01	-5.001E+01	-5.001E+01	-5.001E+01	-5.001E+01	-5.001E+01	-5.000E+01	-4.984E+01	-4.926E+01	-4.829E+01	-4.694E+01	-4.525E+01	-4.323E+01	-4.090E+01	-3.830E+01	-3.543E+01	-3.233E+01	-2.901E+01	-2.551E+01	-2.183E+01	-1.801E+01	-1.407E+01	-1.001E+01	-5.001E+01	-5.001E+01	-5.001E+01	-5.001E+01	-5.001E+01	-5.001E+01	-5.001E+01	-5.001E+01	-5.001E+01	-5.001E+01	-5.001E+01	-5.001E+01	-5.001E+01	-5.000E+01	-4.987E+01	-4.928E+01	-4.828E+01	-4.690E+01	-4.518E+01	-4.315E+01	-4.079E+01	-3.816E+01	-3.526E+01	-3.213E+01	-2.880E+01	-2.530E+01	-2.165E+01	-1.787E+01	-1.399E+01	-1.001E+01
    0.2100	 2.000E+01	-2.402E-07	-2.823E-04	-1.339E-05	-1.292E-02	 5.582E-05	 2.006E+01	-2.811E-03	-1.233E-04	 8.666E-02	 1.099E+00	-1.968E-01	 3.629E-03	 3.044E-01	-2.714E-01	 5.679E-04	 5.898E+02	 4.402E+02	-1.255E+04	-4.071E+03	 1.613E+03	-2.169E+01	-9.958E+04	 2.475E+04	 4.176E+02	 1.912E+04	 6.010E+04	-1.743E+00	-1.550E+04	 4.248E+03	 2.138E+03	-5.315E+01	 4.080E+05	 1.152E-03	-1.668E+05	-2.344E+01	 2.990E+03	 7.002E+01	-1.655E+01	-8.327E-17	 7.118E+00	 3.011E+01	 2.870E+03	 7.420E+01	 4.080E+05	 5.940E-02	-1.668E+05	 3.011E+01	 2.419E+05	 3.029E+04	 1.156E+05	 1.306E+05	 7.854E+05	 8.840E+03	 2.832E+01	 1.389E+01	 2.335E+00	 9.908E-01	 8.574E-01	 9.562E+05	 1.192E+03	 2.681E+07	 5.791E+05	 5.285E+05	 5.794E+05	 2.272E+05	 2.434E+05	 2.272E+05	 3.764E+05	 3.234E+05	 3.766E+05	 1.465E+04	 1.820E+04	 1.465E+04	 3.498E+05	 1.383E+05	-1.505E+04	 3.231E+05	 0.000E+00	-1.428E+04	 3.500E+05	-1.384E+05	-1.505E+04	 1.287E+01	-5.452E+00	-1.465E+04	 1.174E+04	-0.000E+00	-1.391E+04	 1.288E+01	 5.457E+00	-1.465E+04	-3.502E+05	-1.142E+05	-4.468E+05	-1.400E+01	-3.570E-05	-1.001E+01	-3.203E+05	 3.506E+00	-4.204E+05	-1.400E+01	-3.570E-05	-1.001E+01	-3.504E+05	 1.142E+05	-4.471E+05	-1.400E+01	-3.570E-05	-1.001E+01	-3.667E+04	-6.675E+03	-2.241E+05	 5.400E+01	 3.055E-05	-9.993E+00	-4.177E+04	-1.354E+00	-2.398E+05	 5.400E+01	 3.055E-05	-9.993E+00	-3.666E+04	 6.672E+03	-2.241E+05	 5.400E+01	 3.055E-05	-9.993E+00	-5.001E+01	-5.001E+01	-5.001E+01	-5.001E+01	-5.001E+01	-5.001E+01	-5.001E+01	-5.001E+01	-5.001E+01	-5.001E+01	-5.001E+01	-5.001E+01	-5.001E+01	-5.000E+01	-4.984E+01	-4.926E+01	-4.829E+01	-4.695E+01	-4.525E+01	-4.323E+01	-4.091E+01	-3.830E+01	-3.544E+01	-3.233E+01	-2.902E+01	-2.551E+01	-2.183E+01	-1.801E+01	-1.407E+01	-1.001E+01	-5.001E+01	-5.001E+01	-5.001E+01	-5.001E+01	-5.001E+01	-5.001E+01	-5.001E+01	-5.001E+01	-5.001E+01	-5.001E+01	-5.001E+01	-5.001E+01	-5.001E+01	-5.000E+01	-4.987E+01	-4.927E+01	-4.828E+01	-4.690E+01	-4.518E+01	-4.315E+01	-4.080E+01	-3.816E+01	-3.527E+01	-3.214E+01	-2.880E+01	-2.530E+01	-2.165E+01	-1.787E+01	-1.399E+01	-1.001E+01
    0.2400	 2.000E+01	-3.923E-07	-3.765E-04	-2.443E-05	-1.706E-02	 8.669E-05	 2.008E+01	-3.955E-03	-1.534E-04	 8.823E-02	 1.296E+00	-2.828E-01	 4.895E-03	 3.926E-01	-3.232E-01	 7.267E-04	 6.203E+02	 4.886E+02	-1.252E+04	-4.081E+03	 1.612E+03	-2.089E+01	-1.001E+05	 3.139E+04	 4.985E+02	 2.190E+04	 5.939E+04	-1.750E+00	-1.532E+04	 4.868E+03	 2.566E+03	-9.040E+01	 4.080E+05	 1.741E-03	-1.668E+05	-3.954E+01	 3.205E+03	 8.712E+01	-2.129E+01	 5.551E-17	 9.155E+00	 3.746E+01	 3.062E+03	 9.344E+01	 4.080E+05	 1.310E-01	-1.668E+05	 3.746E+01	 2.549E+05	 3.722E+04	 1.145E+05	 1.388E+05	 7.628E+05	 1.003E+04	 2.771E+01	 1.357E+01	 2.368E+00	 1.007E+00	 8.422E-01	 9.317E+05	 1.400E+03	 2.681E+07	 5.921E+05	 5.180E+05	 5.925E+05	 2.277E+05	 2.424E+05	 2.277E+05	 3.852E+05	 2.987E+05	 3.854E+05	 1.465E+04	 1.831E+04	 1.465E+04	 3.580E+05	 1.414E+05	-1.505E+04	 2.984E+05	 0.000E+00	-1.425E+04	 3.582E+05	-1.415E+05	-1.506E+04	-1.600E+01	 6.779E+00	-1.465E+04	 1.191E+04	-0.000E+00	-1.391E+04	-1.598E+01	-6.770E+00	-1.465E+04	-3.583E+05	-1.169E+05	-4.567E+05	-1.400E+01	-5.609E-05	-1.001E+01	-3.138E+05	 5.317E+00	-4.122E+05	-1.400E+01	-5.609E-05	-1.001E+01	-3.585E+05	 1.170E+05	-4.569E+05	-1.400E+01	-5.609E-05	-1.001E+01	-3.653E+04	-6.645E+03	-2.246E+05	 5.400E+01	 4.679E-05	-9.990E+00	-4.138E+04	-2.050E+00	-2.389E+05	 5.400E+01	 4.679E-05	-9.990E+00	-3.653E+04	 6.641E+03	-2.246E+05	 5.400E+01	 4.679E-05	-9.990E+00	-5.001E+01	-5.001E+01	-5.001E+01	-5.001E+01	-5.001E+01	-5.001E+01	-5.001E+01	-5.001E+01	-5.001E+01	-5.001E+01	-5.001E+01	-5.001E+01	-5.001E+01	-5.000E+01	-4.984E+01	-4.927E+01	-4.830E+01	-4.695E+01	-4.526E+01	-4.324E+01	-4.091E+01	-3.831E+01	-3.544E+01	-3.234E+01	-2.902E+01	-2.551E+01	-2.183E+01	-1.802E+01	-1.407E+01	-1.001E+01	-5.001E+01	-5.001E+01	-5.001E+01	-5.001E+01	-5.001E+01	-5.001E+01	-5.001E+01	-5.001E+01	-5.001E+01	-5.001E+01	-5.001E+01	-5.001E+01	-5.001E+01	-5.000E+01	-4.986E+01	-4.927E+01	-4.828E+01	-4.691E+01	-4.518E+01	-4.315E+01	-4.080E+01	-3.817E+01	-3.527E+01	-3.214E+01	-2.880E+01	-2.530E+01	-2.165E+01	-1.787E+01	-1.399E+01	-1.001E+01
    0.2700	 2.000E+01	-5.515E-07	-4.908E-04	-4.110E-05	-2.184E-02	 1.265E-04	 2.009E+01	-5.297E-03	-2.028E-04	 9.054E-02	 1.479E+00	-3.826E-01	 6.110E-03	 5.011E-01	-3.836E-01	 9.405E-04	 6.670E+02	 5.371E+02	-1.248E+04	-4.092E+03	 1.610E+03	-2.032E+01	-1.006E+05	 4.114E+04	 5.699E+02	 2.469E+04	 5.857E+04	-1.798E+00	-1.511E+04	 5.486E+03	 2.941E+03	-1.318E+02	 4.080E+05	 2.415E-03	-1.668E+05	-5.749E+01	 3.478E+03	 1.047E+02	-2.647E+01	 1.110E-16	 1.138E+01	 4.502E+01	 3.314E+03	 1.135E+02	 4.080E+05	 2.363E-01	-1.668E+05	 4.502E+01	 2.760E+05	 4.390E+04	 1.133E+05	 1.536E+05	 7.176E+05	 1.114E+04	 2.703E+01	 1.326E+01	 2.425E+00	 1.035E+00	 8.269E-01	 9.044E+05	 1.714E+03	 2.681E+07	 5.920E+05	 5.067E+05	 5.924E+05	 2.281E+05	 2.439E+05	 2.281E+05	 3.844E+05	 2.933E+05	 3.846E+05	 1.465E+04	 1.842E+04	 1.465E+04	 3.572E+05	 1.410E+05	-1.505E+04	 2.929E+05	 0.000E+00	-1.424E+04	 3.575E+05	-1.411E+05	-1.505E+04	-4.576E+01	 1.939E+01	-1.465E+04	 1.207E+04	-0.000E+00	-1.391E+04	-4.573E+01	-1.938E+01	-1.465E+04	-3.583E+05	-1.171E+05	-4.565E+05	-1.400E+01	-8.277E-05	-1.001E+01	-3.067E+05	 7.544E+00	-4.033E+05	-1.400E+01	-8.277E-05	-1.001E+01	-3.585E+05	 1.172E+05	-4.568E+05	-1.400E+01	-8.277E-05	-1.001E+01	-3.640E+04	-6.614E+03	-2.251E+05	 5.400E+01	 6.734E-05	-9.988E+00	-4.142E+04	-2.943E+00	-2.403E+05	 5.400E+01	 6.734E-05	-9.988E+00	-3.640E+04	 6.609E+03	-2.251E+05	 5.400E+01	 6.734E-05	-9.988E+00	-5.001E+01	-5.001E+01	-5.001E+01	-5.001E+01	-5.001E+01	-5.001E+01	-5.001E+01	-5.001E+01	-5.001E+01	-5.001E+01	-5.001E+01	-5.001E+01	-5.001E+01	-5.000E+01	-4.984E+01	-4.927E+01	-4.830E+01	-4.696E+01	-4.526E+01	-4.324E+01	-4.092E+01	-3.831E+01	-3.545E+01	-3.234E+01	-2.902E+01	-2.551E+01	-2.184E+01	-1.802E+01	-1.407E+01	-1.001E+01	-5.001E+01	-5.001E+01	-5.001E+01	-5.001E+01	-5.001E+01	-5.001E+01	-5.001E+01	-5.001E+01	-5.001E+01	-5.001E+01	-5.001E+01	-5.001E+01	-5.001E+01	-5.000E+01	-4.986E+01	-4.927E+01	-4.828E+01	-4.691E+01	-4.519E+01	-4.316E+01	-4.081E+01	-3.817E+01	-3.528E+01	-3.215E+01	-2.880E+01	-2.530E+01	-2.165E+01	-1.788E+01	-1.399E+01	-1.001E+01
    0.3000	 2.000E+01	-6.877E-07	-6.238E-04	-6.501E-05	-2.729E-02	 1.754E-04	 2.010E+01	-6.803E-03	-2.751E-04	 9.377E-02	 1.634E+00	-4.909E-01	 7.066E-03	 6.459E-01	-4.414E-01	 1.403E-03	 7.226E+02	 5.853E+02	-1.243E+04	-4.102E+03	 1.608E+03	-2.015E+01	-1.013E+05	 5.326E+04	 6.334E+02	 2.746E+04	 5.765E+04	-1.900E+00	-1.487E+04	 6.102E+03	 3.273E+03	-1.683E+02	 4.080E+05	 3.092E-03	-1.668E+05	-7.340E+01	 3.757E+03	 1.212E+02	-3.180E+01	-1.110E-16	 1.368E+01	 5.212E+01	 3.577E+03	 1.324E+02	 4.080E+05	 3.667E-01	-1.668E+05	 5.211E+01	 3.018E+05	 5.047E+04	 1.121E+05	 1.738E+05	 6.631E+05	 1.225E+04	 2.636E+01	 1.289E+01	 2.499E+00	 1.068E+00	 8.117E-01	 8.806E+05	 2.400E+03	 2.680E+07	 5.787E+05	 5.134E+05	 5.791E+05	 2.288E+05	 2.438E+05	 2.288E+05	 3.744E+05	 3.006E+05	 3.747E+05	 1.465E+04	 1.852E+04	 1.465E+04	 3.481E+05	 1.373E+05	-1.504E+04	 3.002E+05	 0.000E+00	-1.425E+04	 3.483E+05	-1.374E+05	-1.504E+04	-7.605E+01	 3.223E+01	-1.465E+04	 1.224E+04	-0.000E+00	-1.391E+04	-7.602E+01	-3.221E+01	-1.465E+04	-3.502E+05	-1.145E+05	-4.463E+05	-1.400E+01	-1.161E-04	-1.002E+01	-3.108E+05	 1.052E+01	-4.086E+05	-1.400E+01	-1.161E-04	-1.002E+01	-3.504E+05	 1.146E+05	-4.466E+05	-1.400E+01	-1.161E-04	-1.002E+01	-3.630E+04	-6.588E+03	-2.258E+05	 5.400E+01	 9.207E-05	-9.984E+00	-4.120E+04	-3.982E+00	-2.403E+05	 5.400E+01	 9.207E-05	-9.984E+00	-3.630E+04	 6.580E+03	-2.258E+05	 5.400E+01	 9.207E-05	-9.984E+00	-5.001E+01	-5.001E+01	-5.001E+01	-5.001E+01	-5.001E+01	-5.001E+01	-5.001E+01	-5.001E+01	-5.001E+01	-5.001E+01	-5.001E+01	-5.001E+01	-5.001E+01	-5.000E+01	-4.984E+01	-4.927E+01	-4.830E+01	-4.696E+01	-4.527E+01	-4.325E+01	-4.093E+01	-3.832E+01	-3.545E+01	-3.234E+01	-2.902E+01	-2.551E+01	-2.184E+01	-1.802E+01	-1.407E+01	-1.002E+01	-5.001E+01	-5.001E+01	-5.001E+01	-5.001E+01	-5.001E+01	-5.001E+01	-5.001E+01	-5.001E+01	-5.001E+01	-5.001E+01	-5.001E+01	-5.001E+01	-5.001E+01	-5.000E+01	-4.985E+01	-4.927E+01	-4.828E+01	-4.691E+01	-4.519E+01	-4.316E+01	-4.082E+01	-3.818E+01	-3.529E+01	-3.215E+01	-2.880E+01	-2.530E+01	-2.165E+01	-1.788E+01	-1.400E+01	-1.002E+01
    0.3300	 2.000E+01	-8.351E-07	-7.736E-04	-9.842E-05	-3.339E-02	 2.338E-04	 2.010E+01	-8.443E-03	-3.711E-04	 9.687E-02	 1.778E+00	-6.107E-01	 7.847E-03	 7.909E-01	-5.126E-01	 1.818E-03	 7.866E+02	 6.335E+02	-1.238E+04	-4.113E+03	 1.606E+03	-1.997E+01	-1.020E+05	 6.764E+04	 6.848E+02	 3.022E+04	 5.661E+04	-1.967E+00	-1.461E+04	 6.716E+03	 3.539E+03	-2.135E+02	 4.080E+05	 3.872E-03	-1.668E+05	-9.304E+01	 3.997E+03	 1.337E+02	-3.658E+01	 1.110E-16	 1.573E+01	 5.749E+01	 3.803E+03	 1.478E+02	 4.080E+05	 5.585E-01	-1.668E+05	 5.748E+01	 3.290E+05	 5.743E+04	 1.111E+05	 1.956E+05	 5.905E+05	 1.326E+04	 2.576E+01	 1.247E+01	 2.555E+00	 1.104E+00	 7.943E-01	 8.624E+05	 2.924E+03	 2.680E+07	 5.683E+05	 5.311E+05	 5.687E+05	 2.291E+05	 2.438E+05	 2.291E+05	 3.541E+05	 3.174E+05	 3.543E+05	 1.465E+04	 1.863E+04	 1.465E+04	 3.291E+05	 1.297E+05	-1.502E+04	 3.171E+05	 0.000E+00	-1.427E+04	 3.293E+05	-1.298E+05	-1.502E+04	-1.065E+02	 4.514E+01	-1.465E+04	 1.240E+04	-0.000E+00	-1.391E+04	-1.065E+02	-4.512E+01	-1.465E+04	-3.438E+05	-1.126E+05	-4.383E+05	-1.400E+01	-1.568E-04	-1.002E+01	-3.217E+05	 1.438E+01	-4.226E+05	-1.400E+01	-1.568E-04	-1.002E+01	-3.441E+05	 1.127E+05	-4.386E+05	-1.400E+01	-1.568E-04	-1.002E+01	-3.613E+04	-6.549E+03	-2.261E+05	 5.400E+01	 1.208E-04	-9.981E+00	-4.097E+04	-5.158E+00	-2.403E+05	 5.400E+01	 1.208E-04	-9.981E+00	-3.613E+04	 6.539E+03	-2.261E+05	 5.400E+01	 1.208E-04	-9.981E+00	-5.001E+01	-5.001E+01	-5.001E+01	-5.001E+01	-5.001E+01	-5.001E+01	-5.001E+01	-5.001E+01	-5.001E+01	-5.001E+01	-5.001E+01	-5.001E+01	-5.001E+01	-5.000E+01	-4.984E+01	-4.927E+01	-4.831E+01	-4.697E+01	-4.527E+01	-4.325E+01	-4.093E+01	-3.833E+01	-3.546E+01	-3.235E+01	-2.902E+01	-2.552E+01	-2.184E+01	-1.802E+01	-1.408E+01	-1.002E+01	-5.001E+01	-5.001E+01	-5.001E+01	-5.001E+01	-5.001E+01	-5.001E+01	-5.001E+01	-5.001E+01	-5.001E+01	-5.001E+01	-5.001E+01	-5.001E+01	-5.001E+01	-5.000E+01	-4.985E+01	-4.927E+01	-4.829E+01	-4.692E+01	-4.519E+01	-4.317E+01	-4.083E+01	-3.819E+01	-3.529E+01	-3.216E+01	-2.881E+01	-2.530E+01	-2.165E+01	-1.788E+01	-1.400E+01	-1.002E+01
    0.3600	 2.000E+01	-9.888E-07	-9.395E-04	-1.435E-04	-4.015E-02	 3.013E-04	 2.011E+01	-1.016E-02	-4.910E-04	 9.972E-02	 1.921E+00	-7.375E-01	 8.522E-03	 9.358E-01	-6.036E-01	 2.161E-03	 8.535E+02	 6.815E+02	-1.232E+04	-4.124E+03	 1.604E+03	-1.970E+01	-1.028E+05	 8.309E+04	 7.235E+02	 3.297E+04	 5.547E+04	-2.024E+00	-1.431E+04	 7.327E+03	 3.737E+03	-2.642E+02	 4.080E+05	 4.716E-03	-1.668E+05	-1.150E+02	 4.210E+03	 1.434E+02	-4.069E+01	-3.331E-16	 1.750E+01	 6.165E+01	 4.006E+03	 1.605E+02	 4.080E+05	 8.036E-01	-1.668E+05	 6.164E+01	 3.556E+05	 6.438E+04	 1.103E+05	 2.166E+05	 5.061E+05	 1.421E+04	 2.511E+01	 1.204E+01	 2.612E+00	 1.137E+00	 7.770E-01	 8.430E+05	 3.378E+03	 2.680E+07	 5.577E+05	 5.413E+05	 5.581E+05	 2.295E+05	 2.444E+05	 2.295E+05	 3.422E+05	 3.392E+05	 3.424E+05	 1.465E+04	 1.873E+04	 1.465E+04	 3.181E+05	 1.252E+05	-1.501E+04	 3.389E+05	 0.000E+00	-1.429E+04	 3.183E+05	-1.253E+05	-1.501E+04	-1.367E+02	 5.791E+01	-1.465E+04	 1.255E+04	-0.000E+00	-1.391E+04	-1.366E+02	-5.789E+01	-1.465E+04	-3.373E+05	-1.106E+05	-4.302E+05	-1.400E+01	-2.048E-04	-1.002E+01	-3.279E+05	 1.869E+01	-4.307E+05	-1.400E+01	-2.048E-04	-1.002E+01	-3.376E+05	 1.107E+05	-4.304E+05	-1.400E+01	-2.048E-04	-1.002E+01	-3.599E+04	-6.513E+03	-2.265E+05	 5.400E+01	 1.528E-04	-9.977E+00	-4.086E+04	-6.451E+00	-2.410E+05	 5.400E+01	 1.528E-04	-9.977E+00	-3.599E+04	 6.501E+03	-2.265E+05	 5.400E+01	 1.528E-04	-9.977E+00	-5.001E+01	-5.001E+01	-5.001E+01	-5.001E+01	-5.001E+01	-5.001E+01	-5.001E+01	-5.001E+01	-5.001E+01	-5.001E+01	-5.001E+01	-5.001E+01	-5.001E+01	-5.000E+01	-4.984E+01	-4.927E+01	-4.831E+01	-4.697E+01	-4.528E+01	-4.326E+01	-4.094E+01	-3.833E+01	-3.546E+01	-3.235E+01	-2.903E+01	-2.552E+01	-2.184E+01	-1.803E+01	-1.408E+01	-1.002E+01	-5.001E+01	-5.001E+01	-5.001E+01	-5.001E+01	-5.001E+01	-5.001E+01	-5.001E+01	-5.001E+01	-5.001E+01	-5.001E+01	-5.001E+01	-5.001E+01	-5.001E+01	-5.000E+01	-4.984E+01	-4.927E+01	-4.829E+01	-4.692E+01	-4.520E+01	-4.317E+01	-4.083E+01	-3.820E+01	-3.530E+01	-3.216E+01	-2.881E+01	-2.530E+01	-2.165E+01	-1.789E+01	-1.401E+01	-1.002E+01