
Predictions were generated on 14-Sep-2024 at 18:29:52 using AA AeroAcoustics

Number of observers      :    2
;        Number of blades         :    3
     Number of nodes per blade:   30
Description from AA input file, line2: IEA task 37 RWT turbine -- https://github.com/IEAWindTask37/IEA-3.4-130-RWT

     Time           	Bld1Node1Obs1            	Bld1Node1Obs2            	Bld1Node2Obs1            	Bld1Node2Obs2            	Bld1Node3Obs1            	Bld1Node3Obs2            	Bld1Node4Obs1            	Bld1Node4Obs2            	Bld1Node5Obs1            	Bld1Node5Obs2            	Bld1Node6Obs1            	Bld1Node6Obs2            	Bld1Node7Obs1            	Bld1Node7Obs2            	Bld1Node8Obs1            	Bld1Node8Obs2            	Bld1Node9Obs1            	Bld1Node9Obs2            	Bld1Node10Obs1           	Bld1Node10Obs2           	Bld1Node11Obs1           	Bld1Node11Obs2           	Bld1Node12Obs1           	Bld1Node12Obs2           	Bld1Node13Obs1           	Bld1Node13Obs2           	Bld1Node14Obs1           	Bld1Node14Obs2           	Bld1Node15Obs1           	Bld1Node15Obs2           	Bld1Node16Obs1           	Bld1Node16Obs2           	Bld1Node17Obs1           	Bld1Node17Obs2           	Bld1Node18Obs1           	Bld1Node18Obs2           	Bld1Node19Obs1           	Bld1Node19Obs2           	Bld1Node20Obs1           	Bld1Node20Obs2           	Bld1Node21Obs1           	Bld1Node21Obs2           	Bld1Node22Obs1           	Bld1Node22Obs2           	Bld1Node23Obs1           	Bld1Node23Obs2           	Bld1Node24Obs1           	Bld1Node24Obs2           	Bld1Node25Obs1           	Bld1Node25Obs2           	Bld1Node26Obs1           	Bld1Node26Obs2           	Bld1Node27Obs1           	Bld1Node27Obs2           	Bld1Node28Obs1           	Bld1Node28Obs2           	Bld1Node29Obs1           	Bld1Node29Obs2           	Bld1Node30Obs1           	Bld1Node30Obs2           	Bld2Node1Obs1            	Bld2Node1Obs2            	Bld2Node2Obs1            	Bld2Node2Obs2            	Bld2Node3Obs1            	Bld2Node3Obs2            	Bld2Node4Obs1            	Bld2Node4Obs2            	Bld2Node5Obs1            	Bld2Node5Obs2            	Bld2Node6Obs1            	Bld2Node6Obs2            	Bld2Node7Obs1            	Bld2Node7Obs2            	Bld2Node8Obs1            	Bld2Node8Obs2            	Bld2Node9Obs1            	Bld2Node9Obs2            	Bld2Node10Obs1           	Bld2Node10Obs2           	Bld2Node11Obs1           	Bld2Node11Obs2           	Bld2Node12Obs1           	Bld2Node12Obs2           	Bld2Node13Obs1           	Bld2Node13Obs2           	Bld2Node14Obs1           	Bld2Node14Obs2           	Bld2Node15Obs1           	Bld2Node15Obs2           	Bld2Node16Obs1           	Bld2Node16Obs2           	Bld2Node17Obs1           	Bld2Node17Obs2           	Bld2Node18Obs1           	Bld2Node18Obs2           	Bld2Node19Obs1           	Bld2Node19Obs2           	Bld2Node20Obs1           	Bld2Node20Obs2           	Bld2Node21Obs1           	Bld2Node21Obs2           	Bld2Node22Obs1           	Bld2Node22Obs2           	Bld2Node23Obs1           	Bld2Node23Obs2           	Bld2Node24Obs1           	Bld2Node24Obs2           	Bld2Node25Obs1           	Bld2Node25Obs2           	Bld2Node26Obs1           	Bld2Node26Obs2           	Bld2Node27Obs1           	Bld2Node27Obs2           	Bld2Node28Obs1           	Bld2Node28Obs2           	Bld2Node29Obs1           	Bld2Node29Obs2           	Bld2Node30Obs1           	Bld2Node30Obs2           	Bld3Node1Obs1            	Bld3Node1Obs2            	Bld3Node2Obs1            	Bld3Node2Obs2            	Bld3Node3Obs1            	Bld3Node3Obs2            	Bld3Node4Obs1            	Bld3Node4Obs2            	Bld3Node5Obs1            	Bld3Node5Obs2            	Bld3Node6Obs1            	Bld3Node6Obs2            	Bld3Node7Obs1            	Bld3Node7Obs2            	Bld3Node8Obs1            	Bld3Node8Obs2            	Bld3Node9Obs1            	Bld3Node9Obs2            	Bld3Node10Obs1           	Bld3Node10Obs2           	Bld3Node11Obs1           	Bld3Node11Obs2           	Bld3Node12Obs1           	Bld3Node12Obs2           	Bld3Node13Obs1           	Bld3Node13Obs2           	Bld3Node14Obs1           	Bld3Node14Obs2           	Bld3Node15Obs1           	Bld3Node15Obs2           	Bld3Node16Obs1           	Bld3Node16Obs2           	Bld3Node17Obs1           	Bld3Node17Obs2           	Bld3Node18Obs1           	Bld3Node18Obs2           	Bld3Node19Obs1           	Bld3Node19Obs2           	Bld3Node20Obs1           	Bld3Node20Obs2           	Bld3Node21Obs1           	Bld3Node21Obs2           	Bld3Node22Obs1           	Bld3Node22Obs2           	Bld3Node23Obs1           	Bld3Node23Obs2           	Bld3Node24Obs1           	Bld3Node24Obs2           	Bld3Node25Obs1           	Bld3Node25Obs2           	Bld3Node26Obs1           	Bld3Node26Obs2           	Bld3Node27Obs1           	Bld3Node27Obs2           	Bld3Node28Obs1           	Bld3Node28Obs2           	Bld3Node29Obs1           	Bld3Node29Obs2           	Bld3Node30Obs1           	Bld3Node30Obs2           
      (s)           	SPL                      	SPL                      	SPL                      	SPL                      	SPL                      	SPL                      	SPL                      	SPL                      	SPL                      	SPL                      	SPL                      	SPL                      	SPL                      	SPL                      	SPL                      	SPL                      	SPL                      	SPL                      	SPL                      	SPL                      	SPL                      	SPL                      	SPL                      	SPL                      	SPL                      	SPL                      	SPL                      	SPL                      	SPL                      	SPL                      	SPL                      	SPL                      	SPL                      	SPL                      	SPL                      	SPL                      	SPL                      	SPL                      	SPL                      	SPL                      	SPL                      	SPL                      	SPL                      	SPL                      	SPL                      	SPL                      	SPL                      	SPL                      	SPL                      	SPL                      	SPL                      	SPL                      	SPL                      	SPL                      	SPL                      	SPL                      	SPL                      	SPL                      	SPL                      	SPL                      	SPL                      	SPL                      	SPL                      	SPL                      	SPL                      	SPL                      	SPL                      	SPL                      	SPL                      	SPL                      	SPL                      	SPL                      	SPL                      	SPL                      	SPL                      	SPL                      	SPL                      	SPL                      	SPL                      	SPL                      	SPL                      	SPL                      	SPL                      	SPL                      	SPL                      	SPL                      	SPL                      	SPL                      	SPL                      	SPL                      	SPL                      	SPL                      	SPL                      	SPL                      	SPL                      	SPL                      	SPL                      	SPL                      	SPL                      	SPL                      	SPL                      	SPL                      	SPL                      	SPL                      	SPL                      	SPL                      	SPL                      	SPL                      	SPL                      	SPL                      	SPL                      	SPL                      	SPL                      	SPL                      	SPL                      	SPL                      	SPL                      	SPL                      	SPL                      	SPL                      	SPL                      	SPL                      	SPL                      	SPL                      	SPL                      	SPL                      	SPL                      	SPL                      	SPL                      	SPL                      	SPL                      	SPL                      	SPL                      	SPL                      	SPL                      	SPL                      	SPL                      	SPL                      	SPL                      	SPL                      	SPL                      	SPL                      	SPL                      	SPL                      	SPL                      	SPL                      	SPL                      	SPL                      	SPL                      	SPL                      	SPL                      	SPL                      	SPL                      	SPL                      	SPL                      	SPL                      	SPL                      	SPL                      	SPL                      	SPL                      	SPL                      	SPL                      	SPL                      	SPL                      	SPL                      	SPL                      	SPL                      	SPL                      	SPL                      	SPL                      	SPL                      	SPL                      	SPL                      	SPL                      	SPL                      	SPL                      	SPL                      	SPL                      	SPL                      	SPL                      
         0.0000	  0.000000E+000	  0.000000E+000	  0.000000E+000	  0.000000E+000	  0.000000E+000	  0.000000E+000	  0.000000E+000	  0.000000E+000	  0.000000E+000	  0.000000E+000	  0.000000E+000	  0.000000E+000	  0.000000E+000	  0.000000E+000	  0.000000E+000	  0.000000E+000	  2.315538E+001	 -1.169311E+000	  2.497049E+001	 -3.513351E+000	  2.667856E+001	 -8.095240E+000	  2.806853E+001	 -2.488522E+001	  2.967591E+001	 -1.032815E+001	  3.063390E+001	 -3.820309E+000	  3.194600E+001	  4.970329E-001	  3.268020E+001	  3.140745E+000	  3.338060E+001	  5.126188E+000	  3.406194E+001	  6.794271E+000	  3.462481E+001	  8.213653E+000	  3.541740E+001	  9.845047E+000	  3.554758E+001	  1.073326E+001	  3.633610E+001	  1.218628E+001	  3.720402E+001	  1.367478E+001	  3.771089E+001	  1.479748E+001	  3.824318E+001	  1.602224E+001	  3.870342E+001	  1.739840E+001	  4.017542E+001	  1.990953E+001	  4.238028E+001	  2.313599E+001	  4.540549E+001	  2.728187E+001	  4.723492E+001	  3.016129E+001	  0.000000E+000	  0.000000E+000	  0.000000E+000	  0.000000E+000	  0.000000E+000	  0.000000E+000	  0.000000E+000	  0.000000E+000	  0.000000E+000	  0.000000E+000	  0.000000E+000	  0.000000E+000	  0.000000E+000	  0.000000E+000	  0.000000E+000	  0.000000E+000	  2.728030E+001	  1.942642E+001	  2.888715E+001	  1.983479E+001	  3.084480E+001	  2.061454E+001	  3.231631E+001	  2.094712E+001	  3.405080E+001	  2.169770E+001	  3.521376E+001	  2.216313E+001	  3.653031E+001	  2.293380E+001	  3.754980E+001	  2.347418E+001	  3.815314E+001	  2.370410E+001	  3.908776E+001	  2.428353E+001	  3.960330E+001	  2.447339E+001	  4.049520E+001	  2.513141E+001	  4.073822E+001	  2.525745E+001	  4.167401E+001	  2.612627E+001	  4.243878E+001	  2.683329E+001	  4.301941E+001	  2.733771E+001	  4.360050E+001	  2.784606E+001	  4.425821E+001	  2.847692E+001	  4.572107E+001	  2.987512E+001	  4.798142E+001	  3.196699E+001	  5.101121E+001	  3.435009E+001	  5.216291E+001	  3.344163E+001	  0.000000E+000	  0.000000E+000	  0.000000E+000	  0.000000E+000	  0.000000E+000	  0.000000E+000	  0.000000E+000	  0.000000E+000	  0.000000E+000	  0.000000E+000	  0.000000E+000	  0.000000E+000	  0.000000E+000	  0.000000E+000	  0.000000E+000	  0.000000E+000	  2.275871E+001	  7.250820E+000	  2.497918E+001	  9.517037E+000	  2.618285E+001	  1.160727E+001	  2.806708E+001	  1.350512E+001	  2.964300E+001	  1.511237E+001	  3.088881E+001	  1.633162E+001	  3.231458E+001	  1.767021E+001	  3.301522E+001	  1.831001E+001	  3.390634E+001	  1.914199E+001	  3.441894E+001	  1.962723E+001	  3.527505E+001	  2.044463E+001	  3.593123E+001	  2.096879E+001	  3.641291E+001	  2.123336E+001	  3.690436E+001	  2.147715E+001	  3.788314E+001	  2.218289E+001	  3.850793E+001	  2.250203E+001	  3.919713E+001	  2.275680E+001	  3.994343E+001	  2.269487E+001	  4.096116E+001	  2.250834E+001	  4.323685E+001	  2.325764E+001	  4.637309E+001	  2.458979E+001	  4.877109E+001	  2.647144E+001
         0.1000	  0.000000E+000	  0.000000E+000	  0.000000E+000	  0.000000E+000	  0.000000E+000	  0.000000E+000	  0.000000E+000	  0.000000E+000	  0.000000E+000	  0.000000E+000	  0.000000E+000	  0.000000E+000	  0.000000E+000	  0.000000E+000	  0.000000E+000	  0.000000E+000	  2.374609E+001	 -1.529813E+000	  2.545374E+001	 -4.117701E+000	  2.793603E+001	 -9.124302E+000	  3.013352E+001	 -2.320196E+001	  3.251310E+001	 -3.979980E+000	  3.469867E+001	  2.683444E+000	  3.661328E+001	  7.244976E+000	  3.836272E+001	  1.079849E+001	  3.948377E+001	  1.311729E+001	  4.101273E+001	  1.552531E+001	  4.218515E+001	  1.756486E+001	  4.344809E+001	  1.964129E+001	  4.450348E+001	  2.139129E+001	  4.551913E+001	  2.305821E+001	  4.652506E+001	  2.467342E+001	  4.741530E+001	  2.612749E+001	  4.844883E+001	  2.781675E+001	  4.955478E+001	  2.972446E+001	  5.032364E+001	  3.145271E+001	  5.130745E+001	  3.339099E+001	  5.326039E+001	  3.621408E+001	  4.928308E+001	  3.271748E+001	  0.000000E+000	  0.000000E+000	  0.000000E+000	  0.000000E+000	  0.000000E+000	  0.000000E+000	  0.000000E+000	  0.000000E+000	  0.000000E+000	  0.000000E+000	  0.000000E+000	  0.000000E+000	  0.000000E+000	  0.000000E+000	  0.000000E+000	  0.000000E+000	  2.731700E+001	  2.095558E+001	  2.912468E+001	  2.121546E+001	  3.164136E+001	  2.223796E+001	  3.403302E+001	  2.302961E+001	  3.615531E+001	  2.355071E+001	  3.840403E+001	  2.468371E+001	  4.023579E+001	  2.525657E+001	  4.208297E+001	  2.649576E+001	  4.320766E+001	  2.674103E+001	  4.480325E+001	  2.803916E+001	  4.609138E+001	  2.882169E+001	  4.729316E+001	  2.965654E+001	  4.845036E+001	  3.074494E+001	  4.949895E+001	  3.173056E+001	  5.049839E+001	  3.260651E+001	  5.144003E+001	  3.338856E+001	  5.257251E+001	  3.460779E+001	  5.368987E+001	  3.590402E+001	  5.443346E+001	  3.668661E+001	  5.534684E+001	  3.716816E+001	  5.754022E+001	  3.961844E+001	  5.424717E+001	  3.581069E+001	  0.000000E+000	  0.000000E+000	  0.000000E+000	  0.000000E+000	  0.000000E+000	  0.000000E+000	  0.000000E+000	  0.000000E+000	  0.000000E+000	  0.000000E+000	  0.000000E+000	  0.000000E+000	  0.000000E+000	  0.000000E+000	  0.000000E+000	  0.000000E+000	  2.274166E+001	  5.530776E+000	  2.487255E+001	  8.391295E+000	  2.700474E+001	  1.062949E+001	  2.953964E+001	  1.324409E+001	  3.199410E+001	  1.580146E+001	  3.413713E+001	  1.789179E+001	  3.634351E+001	  2.002281E+001	  3.806966E+001	  2.165709E+001	  3.939782E+001	  2.292058E+001	  4.089268E+001	  2.435836E+001	  4.217409E+001	  2.558288E+001	  4.346634E+001	  2.670278E+001	  4.449300E+001	  2.745416E+001	  4.558529E+001	  2.822744E+001	  4.664983E+001	  2.893422E+001	  4.763287E+001	  2.953605E+001	  4.864288E+001	  3.001316E+001	  4.970475E+001	  3.015893E+001	  5.054826E+001	  2.967028E+001	  5.173670E+001	  2.922429E+001	  5.329671E+001	  2.910840E+001	  5.032219E+001	  2.662431E+001
         0.2000	  0.000000E+000	  0.000000E+000	  0.000000E+000	  0.000000E+000	  0.000000E+000	  0.000000E+000	  0.000000E+000	  0.000000E+000	  0.000000E+000	  0.000000E+000	  0.000000E+000	  0.000000E+000	  0.000000E+000	  0.000000E+000	  0.000000E+000	  0.000000E+000	  2.365147E+001	 -3.940662E+000	  2.535399E+001	 -7.914797E+000	  2.791213E+001	 -2.054527E+001	  3.022892E+001	 -8.422758E+000	  3.242144E+001	  5.563382E-002	  3.471015E+001	  5.378355E+000	  3.654958E+001	  9.307792E+000	  3.848544E+001	  1.268941E+001	  3.960960E+001	  1.486263E+001	  4.124073E+001	  1.725518E+001	  4.252185E+001	  1.929887E+001	  4.372287E+001	  2.126579E+001	  4.485738E+001	  2.304663E+001	  4.592570E+001	  2.472496E+001	  4.693841E+001	  2.631740E+001	  4.790906E+001	  2.781869E+001	  4.898810E+001	  2.948680E+001	  5.007515E+001	  3.129026E+001	  5.080684E+001	  3.286748E+001	  5.175450E+001	  3.465837E+001	  5.368585E+001	  3.731475E+001	  4.978357E+001	  3.366409E+001	  0.000000E+000	  0.000000E+000	  0.000000E+000	  0.000000E+000	  0.000000E+000	  0.000000E+000	  0.000000E+000	  0.000000E+000	  0.000000E+000	  0.000000E+000	  0.000000E+000	  0.000000E+000	  0.000000E+000	  0.000000E+000	  0.000000E+000	  0.000000E+000	  2.678476E+001	  2.265848E+001	  2.858908E+001	  2.292449E+001	  3.111795E+001	  2.394732E+001	  3.351844E+001	  2.466424E+001	  3.555619E+001	  2.481075E+001	  3.796304E+001	  2.609385E+001	  3.977809E+001	  2.623569E+001	  4.176430E+001	  2.775969E+001	  4.298179E+001	  2.798278E+001	  4.459909E+001	  2.928913E+001	  4.599077E+001	  3.021934E+001	  4.715031E+001	  3.070496E+001	  4.840342E+001	  3.201471E+001	  4.950928E+001	  3.306240E+001	  5.051657E+001	  3.377571E+001	  5.152795E+001	  3.462639E+001	  5.273215E+001	  3.606251E+001	  5.381975E+001	  3.726083E+001	  5.456248E+001	  3.795883E+001	  5.550926E+001	  3.828376E+001	  5.757933E+001	  4.074492E+001	  5.458982E+001	  3.771547E+001	  0.000000E+000	  0.000000E+000	  0.000000E+000	  0.000000E+000	  0.000000E+000	  0.000000E+000	  0.000000E+000	  0.000000E+000	  0.000000E+000	  0.000000E+000	  0.000000E+000	  0.000000E+000	  0.000000E+000	  0.000000E+000	  0.000000E+000	  0.000000E+000	  2.200780E+001	  2.714617E+000	  2.423503E+001	  5.431120E+000	  2.655073E+001	  8.112254E+000	  2.894915E+001	  1.077419E+001	  3.150868E+001	  1.354757E+001	  3.370554E+001	  1.571729E+001	  3.592253E+001	  1.781436E+001	  3.771252E+001	  1.945013E+001	  3.896418E+001	  2.053966E+001	  4.057328E+001	  2.199260E+001	  4.184182E+001	  2.307630E+001	  4.321560E+001	  2.410680E+001	  4.426496E+001	  2.464762E+001	  4.541101E+001	  2.519719E+001	  4.651489E+001	  2.562475E+001	  4.749617E+001	  2.587208E+001	  4.854924E+001	  2.597097E+001	  4.965962E+001	  2.552663E+001	  5.047137E+001	  2.407655E+001	  5.165085E+001	  2.236185E+001	  5.310633E+001	  2.108265E+001	  4.989093E+001	  2.056181E+001
         0.3000	  0.000000E+000	  0.000000E+000	  0.000000E+000	  0.000000E+000	  0.000000E+000	  0.000000E+000	  0.000000E+000	  0.000000E+000	  0.000000E+000	  0.000000E+000	  0.000000E+000	  0.000000E+000	  0.000000E+000	  0.000000E+000	  0.000000E+000	  0.000000E+000	  2.417041E+001	 -7.178086E+000	  2.592987E+001	 -1.576026E+001	  2.847617E+001	 -1.284999E+001	  3.082144E+001	 -1.835879E+000	  3.298520E+001	  3.971518E+000	  3.526050E+001	  8.454761E+000	  3.706502E+001	  1.195451E+001	  3.897349E+001	  1.503322E+001	  4.009543E+001	  1.714004E+001	  4.170229E+001	  1.944629E+001	  4.299194E+001	  2.143470E+001	  4.415838E+001	  2.329045E+001	  4.531264E+001	  2.508610E+001	  4.637960E+001	  2.673367E+001	  4.737721E+001	  2.828492E+001	  4.834765E+001	  2.975241E+001	  4.943363E+001	  3.136606E+001	  5.049815E+001	  3.305768E+001	  5.122894E+001	  3.451262E+001	  5.214343E+001	  3.614499E+001	  5.399763E+001	  3.857902E+001	  5.026704E+001	  3.484257E+001	  0.000000E+000	  0.000000E+000	  0.000000E+000	  0.000000E+000	  0.000000E+000	  0.000000E+000	  0.000000E+000	  0.000000E+000	  0.000000E+000	  0.000000E+000	  0.000000E+000	  0.000000E+000	  0.000000E+000	  0.000000E+000	  0.000000E+000	  0.000000E+000	  2.656209E+001	  2.484004E+001	  2.834392E+001	  2.521437E+001	  3.089284E+001	  2.636866E+001	  3.322356E+001	  2.701943E+001	  3.537142E+001	  2.735553E+001	  3.763742E+001	  2.827781E+001	  3.942494E+001	  2.810533E+001	  4.138631E+001	  2.953490E+001	  4.251630E+001	  2.916825E+001	  4.421688E+001	  3.081433E+001	  4.556018E+001	  3.142953E+001	  4.679635E+001	  3.200937E+001	  4.800981E+001	  3.310704E+001	  4.914499E+001	  3.418826E+001	  5.021351E+001	  3.493257E+001	  5.119440E+001	  3.550357E+001	  5.234803E+001	  3.677880E+001	  5.350566E+001	  3.824220E+001	  5.421592E+001	  3.894150E+001	  5.525859E+001	  3.923678E+001	  5.726492E+001	  4.161374E+001	  5.409640E+001	  3.895715E+001	  0.000000E+000	  0.000000E+000	  0.000000E+000	  0.000000E+000	  0.000000E+000	  0.000000E+000	  0.000000E+000	  0.000000E+000	  0.000000E+000	  0.000000E+000	  0.000000E+000	  0.000000E+000	  0.000000E+000	  0.000000E+000	  0.000000E+000	  0.000000E+000	  2.196282E+001	 -8.643511E-001	  2.434111E+001	  2.520813E+000	  2.678378E+001	  5.726292E+000	  2.926118E+001	  8.753689E+000	  3.187898E+001	  1.171175E+001	  3.423040E+001	  1.403873E+001	  3.632010E+001	  1.589916E+001	  3.817980E+001	  1.745913E+001	  3.938028E+001	  1.831147E+001	  4.100111E+001	  1.955533E+001	  4.228026E+001	  2.037663E+001	  4.361337E+001	  2.098824E+001	  4.469404E+001	  2.102978E+001	  4.577886E+001	  2.083133E+001	  4.683337E+001	  2.032168E+001	  4.776998E+001	  1.939886E+001	  4.882812E+001	  1.782728E+001	  4.989755E+001	  1.377822E+001	  5.065367E+001	 -2.186406E+000	  5.172954E+001	  1.102836E+001	  5.334433E+001	  1.662995E+001	  4.953681E+001	 -2.801114E+001
         0.4000	  0.000000E+000	  0.000000E+000	  0.000000E+000	  0.000000E+000	  0.000000E+000	  0.000000E+000	  0.000000E+000	  0.000000E+000	  0.000000E+000	  0.000000E+000	  0.000000E+000	  0.000000E+000	  0.000000E+000	  0.000000E+000	  0.000000E+000	  0.000000E+000	  2.469224E+001	 -1.327379E+001	  2.644310E+001	 -1.975471E+001	  2.895615E+001	 -4.819313E+000	  3.128101E+001	  2.037074E+000	  3.345945E+001	  6.809018E+000	  3.568145E+001	  1.082623E+001	  3.751147E+001	  1.413312E+001	  3.933506E+001	  1.704613E+001	  4.043931E+001	  1.908062E+001	  4.204284E+001	  2.137082E+001	  4.331028E+001	  2.332664E+001	  4.449130E+001	  2.518684E+001	  4.561951E+001	  2.695123E+001	  4.668672E+001	  2.859195E+001	  4.768498E+001	  3.013294E+001	  4.864721E+001	  3.158093E+001	  4.975305E+001	  3.317675E+001	  5.083870E+001	  3.481514E+001	  5.156904E+001	  3.616481E+001	  5.251602E+001	  3.771924E+001	  5.434926E+001	  3.997115E+001	  5.062974E+001	  3.604798E+001	  0.000000E+000	  0.000000E+000	  0.000000E+000	  0.000000E+000	  0.000000E+000	  0.000000E+000	  0.000000E+000	  0.000000E+000	  0.000000E+000	  0.000000E+000	  0.000000E+000	  0.000000E+000	  0.000000E+000	  0.000000E+000	  0.000000E+000	  0.000000E+000	  2.650596E+001	  2.710306E+001	  2.822734E+001	  2.767637E+001	  3.073653E+001	  2.900980E+001	  3.290038E+001	  2.953919E+001	  3.525132E+001	  3.035667E+001	  3.741622E+001	  3.106396E+001	  3.929028E+001	  3.110726E+001	  4.108633E+001	  3.194196E+001	  4.218146E+001	  3.113576E+001	  4.385511E+001	  3.273239E+001	  4.508950E+001	  3.257635E+001	  4.644060E+001	  3.372524E+001	  4.757574E+001	  3.430231E+001	  4.871512E+001	  3.540936E+001	  4.981790E+001	  3.623840E+001	  5.079864E+001	  3.643892E+001	  5.191737E+001	  3.744452E+001	  5.309838E+001	  3.920495E+001	  5.391461E+001	  4.008688E+001	  5.494032E+001	  4.033478E+001	  5.681440E+001	  4.244288E+001	  5.368380E+001	  4.040369E+001	  0.000000E+000	  0.000000E+000	  0.000000E+000	  0.000000E+000	  0.000000E+000	  0.000000E+000	  0.000000E+000	  0.000000E+000	  0.000000E+000	  0.000000E+000	  0.000000E+000	  0.000000E+000	  0.000000E+000	  0.000000E+000	  0.000000E+000	  0.000000E+000	  2.202402E+001	 -6.111534E+000	  2.439611E+001	 -1.391628E+000	  2.694313E+001	  2.685611E+000	  2.948378E+001	  6.273470E+000	  3.211557E+001	  9.462165E+000	  3.453356E+001	  1.187527E+001	  3.659623E+001	  1.359075E+001	  3.850617E+001	  1.501190E+001	  3.970327E+001	  1.560421E+001	  4.131841E+001	  1.649819E+001	  4.261513E+001	  1.692175E+001	  4.386288E+001	  1.678901E+001	  4.496149E+001	  1.578121E+001	  4.601145E+001	  1.381892E+001	  4.701642E+001	  1.001807E+001	  4.791518E+001	  2.824187E-001	  4.898889E+001	  4.935208E+000	  5.003320E+001	  1.525338E+001	  5.074639E+001	  2.028139E+001	  5.170706E+001	  2.351367E+001	  5.350541E+001	  2.560158E+001	  4.939727E+001	  1.562077E+001
         0.5000	  0.000000E+000	  0.000000E+000	  0.000000E+000	  0.000000E+000	  0.000000E+000	  0.000000E+000	  0.000000E+000	  0.000000E+000	  0.000000E+000	  0.000000E+000	  0.000000E+000	  0.000000E+000	  0.000000E+000	  0.000000E+000	  0.000000E+000	  0.000000E+000	  2.497062E+001	 -2.623411E+001	  2.666309E+001	 -7.877065E+000	  2.913899E+001	 -4.754534E-001	  3.138678E+001	  4.691389E+000	  3.359333E+001	  8.832712E+000	  3.579473E+001	  1.250486E+001	  3.763852E+001	  1.562807E+001	  3.946985E+001	  1.842638E+001	  4.055741E+001	  2.036851E+001	  4.217935E+001	  2.262347E+001	  4.339805E+001	  2.449915E+001	  4.466960E+001	  2.639114E+001	  4.577705E+001	  2.810720E+001	  4.682365E+001	  2.970466E+001	  4.785185E+001	  3.124190E+001	  4.876207E+001	  3.261960E+001	  4.982776E+001	  3.415106E+001	  5.095298E+001	  3.577613E+001	  5.172427E+001	  3.709879E+001	  5.271450E+001	  3.862358E+001	  5.459613E+001	  4.082602E+001	  5.089472E+001	  3.678296E+001	  0.000000E+000	  0.000000E+000	  0.000000E+000	  0.000000E+000	  0.000000E+000	  0.000000E+000	  0.000000E+000	  0.000000E+000	  0.000000E+000	  0.000000E+000	  0.000000E+000	  0.000000E+000	  0.000000E+000	  0.000000E+000	  0.000000E+000	  0.000000E+000	  2.641890E+001	  2.868831E+001	  2.819288E+001	  2.969802E+001	  3.062823E+001	  3.131297E+001	  3.281348E+001	  3.221881E+001	  3.521055E+001	  3.339273E+001	  3.739884E+001	  3.427735E+001	  3.934277E+001	  3.454487E+001	  4.111628E+001	  3.526797E+001	  4.228851E+001	  3.466572E+001	  4.389249E+001	  3.584340E+001	  4.511392E+001	  3.531175E+001	  4.647261E+001	  3.651143E+001	  4.756791E+001	  3.667662E+001	  4.865427E+001	  3.743244E+001	  4.973917E+001	  3.815178E+001	  5.069660E+001	  3.805277E+001	  5.175654E+001	  3.848956E+001	  5.291669E+001	  4.041625E+001	  5.372829E+001	  4.134585E+001	  5.476069E+001	  4.107271E+001	  5.672761E+001	  4.411470E+001	  5.353597E+001	  4.156360E+001	  0.000000E+000	  0.000000E+000	  0.000000E+000	  0.000000E+000	  0.000000E+000	  0.000000E+000	  0.000000E+000	  0.000000E+000	  0.000000E+000	  0.000000E+000	  0.000000E+000	  0.000000E+000	  0.000000E+000	  0.000000E+000	  0.000000E+000	  0.000000E+000	  2.199224E+001	 -1.826866E+001	  2.437413E+001	 -7.674924E+000	  2.683695E+001	 -1.694230E+000	  2.930420E+001	  2.846119E+000	  3.192970E+001	  6.512182E+000	  3.431448E+001	  9.071331E+000	  3.641992E+001	  1.085145E+001	  3.828185E+001	  1.220396E+001	  3.952040E+001	  1.273699E+001	  4.109293E+001	  1.343998E+001	  4.236433E+001	  1.364682E+001	  4.367265E+001	  1.320334E+001	  4.472734E+001	  1.130715E+001	  4.576016E+001	  7.484083E+000	  4.677290E+001	 -4.015319E+000	  4.766925E+001	  2.926138E+000	  4.867384E+001	  1.195999E+001	  4.971940E+001	  1.736833E+001	  5.046164E+001	  2.076823E+001	  5.157590E+001	  2.321932E+001	  5.307073E+001	  2.404726E+001	  4.934642E+001	  1.082580E+001
         0.6000	  0.000000E+000	  0.000000E+000	  0.000000E+000	  0.000000E+000	  0.000000E+000	  0.000000E+000	  0.000000E+000	  0.000000E+000	  0.000000E+000	  0.000000E+000	  0.000000E+000	  0.000000E+000	  0.000000E+000	  0.000000E+000	  0.000000E+000	  0.000000E+000	  2.570474E+001	 -9.371963E+000	  2.749345E+001	 -2.459213E+000	  2.983710E+001	  2.806305E+000	  3.194911E+001	  6.989604E+000	  3.424374E+001	  1.075769E+001	  3.638714E+001	  1.412170E+001	  3.829689E+001	  1.712024E+001	  3.999842E+001	  1.969764E+001	  4.116151E+001	  2.160528E+001	  4.264587E+001	  2.369078E+001	  4.384482E+001	  2.548919E+001	  4.508883E+001	  2.732236E+001	  4.609654E+001	  2.890453E+001	  4.713920E+001	  3.046125E+001	  4.813537E+001	  3.194065E+001	  4.904726E+001	  3.329254E+001	  5.001769E+001	  3.472074E+001	  5.108816E+001	  3.627232E+001	  5.187357E+001	  3.757047E+001	  5.308766E+001	  3.923926E+001	  5.446140E+001	  4.100450E+001	  5.121308E+001	  3.720781E+001	  0.000000E+000	  0.000000E+000	  0.000000E+000	  0.000000E+000	  0.000000E+000	  0.000000E+000	  0.000000E+000	  0.000000E+000	  0.000000E+000	  0.000000E+000	  0.000000E+000	  0.000000E+000	  0.000000E+000	  0.000000E+000	  0.000000E+000	  0.000000E+000	  2.673065E+001	  2.929085E+001	  2.882680E+001	  3.090421E+001	  3.123776E+001	  3.277827E+001	  3.348182E+001	  3.419604E+001	  3.590356E+001	  3.590483E+001	  3.801999E+001	  3.711106E+001	  4.007980E+001	  3.825311E+001	  4.182672E+001	  3.931629E+001	  4.306559E+001	  3.955202E+001	  4.457086E+001	  4.051194E+001	  4.584355E+001	  4.075578E+001	  4.712358E+001	  4.160450E+001	  4.815701E+001	  4.162167E+001	  4.922599E+001	  4.241663E+001	  5.023626E+001	  4.273611E+001	  5.120053E+001	  4.291553E+001	  5.218408E+001	  4.277588E+001	  5.316065E+001	  4.301136E+001	  5.397750E+001	  4.415104E+001	  5.524534E+001	  4.515242E+001	  5.678517E+001	  4.502024E+001	  5.340889E+001	  4.233584E+001	  0.000000E+000	  0.000000E+000	  0.000000E+000	  0.000000E+000	  0.000000E+000	  0.000000E+000	  0.000000E+000	  0.000000E+000	  0.000000E+000	  0.000000E+000	  0.000000E+000	  0.000000E+000	  0.000000E+000	  0.000000E+000	  0.000000E+000	  0.000000E+000	  2.272877E+001	 -1.472476E+001	  2.495409E+001	 -2.067669E+001	  2.713415E+001	 -6.656299E+000	  2.974989E+001	  7.902942E-002	  3.215673E+001	  4.355360E+000	  3.433401E+001	  7.085281E+000	  3.647808E+001	  9.105922E+000	  3.813515E+001	  1.045261E+001	  3.948299E+001	  1.120697E+001	  4.088159E+001	  1.192568E+001	  4.217814E+001	  1.227033E+001	  4.340870E+001	  1.197415E+001	  4.440683E+001	  1.033249E+001	  4.539854E+001	  7.236601E+000	  4.640996E+001	  1.019264E-001	  4.733354E+001	 -6.764536E+000	  4.829983E+001	  7.006464E+000	  4.923270E+001	  1.294873E+001	  5.003505E+001	  1.633765E+001	  5.128093E+001	  1.838989E+001	  5.265082E+001	  1.685222E+001	  5.018795E+001	  9.682870E+000