
Predictions were generated on 05-Feb-2026 at 19:17:08 using AA AeroAcoustics

Number of observers      :2;  Number of blades         :3;     Number of nodes per blade:30
Description from AA input file, line2: IEA task 37 RWT turbine -- https://github.com/IEAWindTask37/IEA-3.4-130-RWT

     Time           	AB1N001Obs1              	AB1N001Obs2              	AB1N002Obs1              	AB1N002Obs2              	AB1N003Obs1              	AB1N003Obs2              	AB1N004Obs1              	AB1N004Obs2              	AB1N005Obs1              	AB1N005Obs2              	AB1N006Obs1              	AB1N006Obs2              	AB1N007Obs1              	AB1N007Obs2              	AB1N008Obs1              	AB1N008Obs2              	AB1N009Obs1              	AB1N009Obs2              	AB1N010Obs1              	AB1N010Obs2              	AB1N011Obs1              	AB1N011Obs2              	AB1N012Obs1              	AB1N012Obs2              	AB1N013Obs1              	AB1N013Obs2              	AB1N014Obs1              	AB1N014Obs2              	AB1N015Obs1              	AB1N015Obs2              	AB1N016Obs1              	AB1N016Obs2              	AB1N017Obs1              	AB1N017Obs2              	AB1N018Obs1              	AB1N018Obs2              	AB1N019Obs1              	AB1N019Obs2              	AB1N020Obs1              	AB1N020Obs2              	AB1N021Obs1              	AB1N021Obs2              	AB1N022Obs1              	AB1N022Obs2              	AB1N023Obs1              	AB1N023Obs2              	AB1N024Obs1              	AB1N024Obs2              	AB1N025Obs1              	AB1N025Obs2              	AB1N026Obs1              	AB1N026Obs2              	AB1N027Obs1              	AB1N027Obs2              	AB1N028Obs1              	AB1N028Obs2              	AB1N029Obs1              	AB1N029Obs2              	AB1N030Obs1              	AB1N030Obs2              	AB2N001Obs1              	AB2N001Obs2              	AB2N002Obs1              	AB2N002Obs2              	AB2N003Obs1              	AB2N003Obs2              	AB2N004Obs1              	AB2N004Obs2              	AB2N005Obs1              	AB2N005Obs2              	AB2N006Obs1              	AB2N006Obs2              	AB2N007Obs1              	AB2N007Obs2              	AB2N008Obs1              	AB2N008Obs2              	AB2N009Obs1              	AB2N009Obs2              	AB2N010Obs1              	AB2N010Obs2              	AB2N011Obs1              	AB2N011Obs2              	AB2N012Obs1              	AB2N012Obs2              	AB2N013Obs1              	AB2N013Obs2              	AB2N014Obs1              	AB2N014Obs2              	AB2N015Obs1              	AB2N015Obs2              	AB2N016Obs1              	AB2N016Obs2              	AB2N017Obs1              	AB2N017Obs2              	AB2N018Obs1              	AB2N018Obs2              	AB2N019Obs1              	AB2N019Obs2              	AB2N020Obs1              	AB2N020Obs2              	AB2N021Obs1              	AB2N021Obs2              	AB2N022Obs1              	AB2N022Obs2              	AB2N023Obs1              	AB2N023Obs2              	AB2N024Obs1              	AB2N024Obs2              	AB2N025Obs1              	AB2N025Obs2              	AB2N026Obs1              	AB2N026Obs2              	AB2N027Obs1              	AB2N027Obs2              	AB2N028Obs1              	AB2N028Obs2              	AB2N029Obs1              	AB2N029Obs2              	AB2N030Obs1              	AB2N030Obs2              	AB3N001Obs1              	AB3N001Obs2              	AB3N002Obs1              	AB3N002Obs2              	AB3N003Obs1              	AB3N003Obs2              	AB3N004Obs1              	AB3N004Obs2              	AB3N005Obs1              	AB3N005Obs2              	AB3N006Obs1              	AB3N006Obs2              	AB3N007Obs1              	AB3N007Obs2              	AB3N008Obs1              	AB3N008Obs2              	AB3N009Obs1              	AB3N009Obs2              	AB3N010Obs1              	AB3N010Obs2              	AB3N011Obs1              	AB3N011Obs2              	AB3N012Obs1              	AB3N012Obs2              	AB3N013Obs1              	AB3N013Obs2              	AB3N014Obs1              	AB3N014Obs2              	AB3N015Obs1              	AB3N015Obs2              	AB3N016Obs1              	AB3N016Obs2              	AB3N017Obs1              	AB3N017Obs2              	AB3N018Obs1              	AB3N018Obs2              	AB3N019Obs1              	AB3N019Obs2              	AB3N020Obs1              	AB3N020Obs2              	AB3N021Obs1              	AB3N021Obs2              	AB3N022Obs1              	AB3N022Obs2              	AB3N023Obs1              	AB3N023Obs2              	AB3N024Obs1              	AB3N024Obs2              	AB3N025Obs1              	AB3N025Obs2              	AB3N026Obs1              	AB3N026Obs2              	AB3N027Obs1              	AB3N027Obs2              	AB3N028Obs1              	AB3N028Obs2              	AB3N029Obs1              	AB3N029Obs2              	AB3N030Obs1              	AB3N030Obs2              
      (s)           	SPL                      	SPL                      	SPL                      	SPL                      	SPL                      	SPL                      	SPL                      	SPL                      	SPL                      	SPL                      	SPL                      	SPL                      	SPL                      	SPL                      	SPL                      	SPL                      	SPL                      	SPL                      	SPL                      	SPL                      	SPL                      	SPL                      	SPL                      	SPL                      	SPL                      	SPL                      	SPL                      	SPL                      	SPL                      	SPL                      	SPL                      	SPL                      	SPL                      	SPL                      	SPL                      	SPL                      	SPL                      	SPL                      	SPL                      	SPL                      	SPL                      	SPL                      	SPL                      	SPL                      	SPL                      	SPL                      	SPL                      	SPL                      	SPL                      	SPL                      	SPL                      	SPL                      	SPL                      	SPL                      	SPL                      	SPL                      	SPL                      	SPL                      	SPL                      	SPL                      	SPL                      	SPL                      	SPL                      	SPL                      	SPL                      	SPL                      	SPL                      	SPL                      	SPL                      	SPL                      	SPL                      	SPL                      	SPL                      	SPL                      	SPL                      	SPL                      	SPL                      	SPL                      	SPL                      	SPL                      	SPL                      	SPL                      	SPL                      	SPL                      	SPL                      	SPL                      	SPL                      	SPL                      	SPL                      	SPL                      	SPL                      	SPL                      	SPL                      	SPL                      	SPL                      	SPL                      	SPL                      	SPL                      	SPL                      	SPL                      	SPL                      	SPL                      	SPL                      	SPL                      	SPL                      	SPL                      	SPL                      	SPL                      	SPL                      	SPL                      	SPL                      	SPL                      	SPL                      	SPL                      	SPL                      	SPL                      	SPL                      	SPL                      	SPL                      	SPL                      	SPL                      	SPL                      	SPL                      	SPL                      	SPL                      	SPL                      	SPL                      	SPL                      	SPL                      	SPL                      	SPL                      	SPL                      	SPL                      	SPL                      	SPL                      	SPL                      	SPL                      	SPL                      	SPL                      	SPL                      	SPL                      	SPL                      	SPL                      	SPL                      	SPL                      	SPL                      	SPL                      	SPL                      	SPL                      	SPL                      	SPL                      	SPL                      	SPL                      	SPL                      	SPL                      	SPL                      	SPL                      	SPL                      	SPL                      	SPL                      	SPL                      	SPL                      	SPL                      	SPL                      	SPL                      	SPL                      	SPL                      	SPL                      	SPL                      	SPL                      	SPL                      	SPL                      	SPL                      	SPL                      	SPL                      	SPL                      	SPL                      	SPL                      	SPL                      	SPL                      
         0.0000	  0.000000E+000	  0.000000E+000	  0.000000E+000	  0.000000E+000	  0.000000E+000	  0.000000E+000	  0.000000E+000	  0.000000E+000	  0.000000E+000	  0.000000E+000	  0.000000E+000	  0.000000E+000	  0.000000E+000	  0.000000E+000	  0.000000E+000	  0.000000E+000	  2.315538E+001	 -1.169311E+000	  2.497049E+001	 -3.513351E+000	  2.667856E+001	 -8.095240E+000	  2.806853E+001	 -1.543842E+001	  2.967591E+001	 -1.029345E+001	  3.063390E+001	 -3.820309E+000	  3.194600E+001	  4.970330E-001	  3.268020E+001	  3.140746E+000	  3.338060E+001	  5.126188E+000	  3.406194E+001	  6.794271E+000	  3.462481E+001	  8.213653E+000	  3.541740E+001	  9.845047E+000	  3.554758E+001	  1.073326E+001	  3.633610E+001	  1.218628E+001	  3.720402E+001	  1.367478E+001	  3.771089E+001	  1.479748E+001	  3.824318E+001	  1.602224E+001	  3.870342E+001	  1.739840E+001	  4.017542E+001	  1.990953E+001	  4.238028E+001	  2.313599E+001	  4.540549E+001	  2.728187E+001	  5.024522E+001	  3.317159E+001	  0.000000E+000	  0.000000E+000	  0.000000E+000	  0.000000E+000	  0.000000E+000	  0.000000E+000	  0.000000E+000	  0.000000E+000	  0.000000E+000	  0.000000E+000	  0.000000E+000	  0.000000E+000	  0.000000E+000	  0.000000E+000	  0.000000E+000	  0.000000E+000	  2.728030E+001	  1.942642E+001	  2.888715E+001	  1.983479E+001	  3.084480E+001	  2.061454E+001	  3.231631E+001	  2.094712E+001	  3.405080E+001	  2.169770E+001	  3.521376E+001	  2.216313E+001	  3.653031E+001	  2.293380E+001	  3.754980E+001	  2.347418E+001	  3.815314E+001	  2.370410E+001	  3.908776E+001	  2.428353E+001	  3.960330E+001	  2.447339E+001	  4.049520E+001	  2.513141E+001	  4.073822E+001	  2.525745E+001	  4.167401E+001	  2.612627E+001	  4.243878E+001	  2.683329E+001	  4.301941E+001	  2.733771E+001	  4.360050E+001	  2.784606E+001	  4.425821E+001	  2.847692E+001	  4.572107E+001	  2.987512E+001	  4.798142E+001	  3.196699E+001	  5.101121E+001	  3.435009E+001	  5.517321E+001	  3.645193E+001	  0.000000E+000	  0.000000E+000	  0.000000E+000	  0.000000E+000	  0.000000E+000	  0.000000E+000	  0.000000E+000	  0.000000E+000	  0.000000E+000	  0.000000E+000	  0.000000E+000	  0.000000E+000	  0.000000E+000	  0.000000E+000	  0.000000E+000	  0.000000E+000	  2.275871E+001	  7.250820E+000	  2.497918E+001	  9.517037E+000	  2.618285E+001	  1.160727E+001	  2.806708E+001	  1.350512E+001	  2.964300E+001	  1.511237E+001	  3.088881E+001	  1.633162E+001	  3.231458E+001	  1.767021E+001	  3.301522E+001	  1.831001E+001	  3.390634E+001	  1.914199E+001	  3.441894E+001	  1.962723E+001	  3.527505E+001	  2.044463E+001	  3.593123E+001	  2.096879E+001	  3.641291E+001	  2.123336E+001	  3.690436E+001	  2.147715E+001	  3.788314E+001	  2.218289E+001	  3.850793E+001	  2.250203E+001	  3.919713E+001	  2.275680E+001	  3.994343E+001	  2.269487E+001	  4.096116E+001	  2.250834E+001	  4.323685E+001	  2.325764E+001	  4.637309E+001	  2.458979E+001	  5.178139E+001	  2.948174E+001
         0.1000	  0.000000E+000	  0.000000E+000	  0.000000E+000	  0.000000E+000	  0.000000E+000	  0.000000E+000	  0.000000E+000	  0.000000E+000	  0.000000E+000	  0.000000E+000	  0.000000E+000	  0.000000E+000	  0.000000E+000	  0.000000E+000	  0.000000E+000	  0.000000E+000	  2.374609E+001	 -1.529814E+000	  2.545374E+001	 -4.117707E+000	  2.793604E+001	 -8.997488E+000	  3.013352E+001	 -1.552576E+001	  3.251311E+001	 -3.979967E+000	  3.469868E+001	  2.683457E+000	  3.661329E+001	  7.244986E+000	  3.836273E+001	  1.079850E+001	  3.948378E+001	  1.311730E+001	  4.101274E+001	  1.552532E+001	  4.218517E+001	  1.756487E+001	  4.344810E+001	  1.964130E+001	  4.450350E+001	  2.139130E+001	  4.551914E+001	  2.305822E+001	  4.652507E+001	  2.467343E+001	  4.741531E+001	  2.612749E+001	  4.844884E+001	  2.781675E+001	  4.955479E+001	  2.972446E+001	  5.032365E+001	  3.145272E+001	  5.130746E+001	  3.339099E+001	  5.326040E+001	  3.621409E+001	  5.229338E+001	  3.572778E+001	  0.000000E+000	  0.000000E+000	  0.000000E+000	  0.000000E+000	  0.000000E+000	  0.000000E+000	  0.000000E+000	  0.000000E+000	  0.000000E+000	  0.000000E+000	  0.000000E+000	  0.000000E+000	  0.000000E+000	  0.000000E+000	  0.000000E+000	  0.000000E+000	  2.731700E+001	  2.095557E+001	  2.912468E+001	  2.121546E+001	  3.164136E+001	  2.223796E+001	  3.403303E+001	  2.302961E+001	  3.615531E+001	  2.355070E+001	  3.840403E+001	  2.468371E+001	  4.023579E+001	  2.525657E+001	  4.208298E+001	  2.649577E+001	  4.320768E+001	  2.674104E+001	  4.480327E+001	  2.803917E+001	  4.609140E+001	  2.882171E+001	  4.729318E+001	  2.965655E+001	  4.845038E+001	  3.074496E+001	  4.949897E+001	  3.173057E+001	  5.049841E+001	  3.260652E+001	  5.144004E+001	  3.338857E+001	  5.257252E+001	  3.460780E+001	  5.368989E+001	  3.590403E+001	  5.443348E+001	  3.668661E+001	  5.534685E+001	  3.716816E+001	  5.754023E+001	  3.961845E+001	  5.725749E+001	  3.882099E+001	  0.000000E+000	  0.000000E+000	  0.000000E+000	  0.000000E+000	  0.000000E+000	  0.000000E+000	  0.000000E+000	  0.000000E+000	  0.000000E+000	  0.000000E+000	  0.000000E+000	  0.000000E+000	  0.000000E+000	  0.000000E+000	  0.000000E+000	  0.000000E+000	  2.274166E+001	  5.530773E+000	  2.487254E+001	  8.391290E+000	  2.700474E+001	  1.062949E+001	  2.953965E+001	  1.324410E+001	  3.199410E+001	  1.580146E+001	  3.413714E+001	  1.789180E+001	  3.634352E+001	  2.002282E+001	  3.806969E+001	  2.165712E+001	  3.939784E+001	  2.292059E+001	  4.089269E+001	  2.435837E+001	  4.217410E+001	  2.558289E+001	  4.346635E+001	  2.670280E+001	  4.449301E+001	  2.745417E+001	  4.558530E+001	  2.822746E+001	  4.664984E+001	  2.893424E+001	  4.763288E+001	  2.953606E+001	  4.864289E+001	  3.001318E+001	  4.970476E+001	  3.015895E+001	  5.054828E+001	  2.967030E+001	  5.173671E+001	  2.922430E+001	  5.329672E+001	  2.910842E+001	  5.333247E+001	  2.963460E+001
         0.2000	  0.000000E+000	  0.000000E+000	  0.000000E+000	  0.000000E+000	  0.000000E+000	  0.000000E+000	  0.000000E+000	  0.000000E+000	  0.000000E+000	  0.000000E+000	  0.000000E+000	  0.000000E+000	  0.000000E+000	  0.000000E+000	  0.000000E+000	  0.000000E+000	  2.365148E+001	 -3.940667E+000	  2.535400E+001	 -7.914816E+000	  2.791215E+001	 -1.484353E+001	  3.022896E+001	 -8.340071E+000	  3.242147E+001	  5.568109E-002	  3.471018E+001	  5.378402E+000	  3.654962E+001	  9.307836E+000	  3.848549E+001	  1.268945E+001	  3.960965E+001	  1.486267E+001	  4.124078E+001	  1.725521E+001	  4.252191E+001	  1.929890E+001	  4.372291E+001	  2.126580E+001	  4.485742E+001	  2.304664E+001	  4.592574E+001	  2.472496E+001	  4.693845E+001	  2.631740E+001	  4.790909E+001	  2.781869E+001	  4.898813E+001	  2.948680E+001	  5.007518E+001	  3.129026E+001	  5.080687E+001	  3.286747E+001	  5.175451E+001	  3.465836E+001	  5.368588E+001	  3.731475E+001	  5.279390E+001	  3.667438E+001	  0.000000E+000	  0.000000E+000	  0.000000E+000	  0.000000E+000	  0.000000E+000	  0.000000E+000	  0.000000E+000	  0.000000E+000	  0.000000E+000	  0.000000E+000	  0.000000E+000	  0.000000E+000	  0.000000E+000	  0.000000E+000	  0.000000E+000	  0.000000E+000	  2.678477E+001	  2.265850E+001	  2.858911E+001	  2.292452E+001	  3.111798E+001	  2.394735E+001	  3.351848E+001	  2.466428E+001	  3.555622E+001	  2.481076E+001	  3.796309E+001	  2.609388E+001	  3.977816E+001	  2.623577E+001	  4.176436E+001	  2.775974E+001	  4.298188E+001	  2.798290E+001	  4.459915E+001	  2.928917E+001	  4.599084E+001	  3.021941E+001	  4.715037E+001	  3.070499E+001	  4.840349E+001	  3.201477E+001	  4.950934E+001	  3.306244E+001	  5.051662E+001	  3.377572E+001	  5.152801E+001	  3.462643E+001	  5.273220E+001	  3.606256E+001	  5.381980E+001	  3.726085E+001	  5.456252E+001	  3.795883E+001	  5.550930E+001	  3.828376E+001	  5.757938E+001	  4.074494E+001	  5.760020E+001	  4.072581E+001	  0.000000E+000	  0.000000E+000	  0.000000E+000	  0.000000E+000	  0.000000E+000	  0.000000E+000	  0.000000E+000	  0.000000E+000	  0.000000E+000	  0.000000E+000	  0.000000E+000	  0.000000E+000	  0.000000E+000	  0.000000E+000	  0.000000E+000	  0.000000E+000	  2.200779E+001	  2.714597E+000	  2.423502E+001	  5.431100E+000	  2.655074E+001	  8.112252E+000	  2.894917E+001	  1.077420E+001	  3.150871E+001	  1.354759E+001	  3.370558E+001	  1.571732E+001	  3.592257E+001	  1.781439E+001	  3.771257E+001	  1.945017E+001	  3.896422E+001	  2.053971E+001	  4.057334E+001	  2.199266E+001	  4.184187E+001	  2.307636E+001	  4.321565E+001	  2.410687E+001	  4.426502E+001	  2.464771E+001	  4.541106E+001	  2.519728E+001	  4.651494E+001	  2.562484E+001	  4.749621E+001	  2.587218E+001	  4.854928E+001	  2.597109E+001	  4.965966E+001	  2.552677E+001	  5.047141E+001	  2.407673E+001	  5.165087E+001	  2.236209E+001	  5.310637E+001	  2.108301E+001	  5.290119E+001	  2.357230E+001
         0.3000	  0.000000E+000	  0.000000E+000	  0.000000E+000	  0.000000E+000	  0.000000E+000	  0.000000E+000	  0.000000E+000	  0.000000E+000	  0.000000E+000	  0.000000E+000	  0.000000E+000	  0.000000E+000	  0.000000E+000	  0.000000E+000	  0.000000E+000	  0.000000E+000	  2.417042E+001	 -7.178116E+000	  2.592989E+001	 -1.426011E+001	  2.847619E+001	 -1.184757E+001	  3.082146E+001	 -1.835823E+000	  3.298522E+001	  3.971548E+000	  3.526052E+001	  8.454778E+000	  3.706505E+001	  1.195451E+001	  3.897351E+001	  1.503321E+001	  4.009545E+001	  1.714003E+001	  4.170230E+001	  1.944626E+001	  4.299195E+001	  2.143466E+001	  4.415839E+001	  2.329040E+001	  4.531265E+001	  2.508604E+001	  4.637960E+001	  2.673361E+001	  4.737721E+001	  2.828484E+001	  4.834765E+001	  2.975233E+001	  4.943364E+001	  3.136598E+001	  5.049816E+001	  3.305760E+001	  5.122894E+001	  3.451254E+001	  5.214341E+001	  3.614490E+001	  5.399763E+001	  3.857895E+001	  5.327733E+001	  3.785281E+001	  0.000000E+000	  0.000000E+000	  0.000000E+000	  0.000000E+000	  0.000000E+000	  0.000000E+000	  0.000000E+000	  0.000000E+000	  0.000000E+000	  0.000000E+000	  0.000000E+000	  0.000000E+000	  0.000000E+000	  0.000000E+000	  0.000000E+000	  0.000000E+000	  2.656209E+001	  2.484005E+001	  2.834392E+001	  2.521438E+001	  3.089285E+001	  2.636868E+001	  3.322357E+001	  2.701947E+001	  3.537142E+001	  2.735553E+001	  3.763744E+001	  2.827784E+001	  3.942495E+001	  2.810531E+001	  4.138633E+001	  2.953493E+001	  4.251633E+001	  2.916829E+001	  4.421690E+001	  3.081435E+001	  4.556021E+001	  3.142957E+001	  4.679638E+001	  3.200937E+001	  4.800984E+001	  3.310708E+001	  4.914502E+001	  3.418828E+001	  5.021354E+001	  3.493257E+001	  5.119443E+001	  3.550358E+001	  5.234806E+001	  3.677883E+001	  5.350569E+001	  3.824221E+001	  5.421595E+001	  3.894150E+001	  5.525862E+001	  3.923678E+001	  5.726495E+001	  4.161373E+001	  5.710674E+001	  4.196746E+001	  0.000000E+000	  0.000000E+000	  0.000000E+000	  0.000000E+000	  0.000000E+000	  0.000000E+000	  0.000000E+000	  0.000000E+000	  0.000000E+000	  0.000000E+000	  0.000000E+000	  0.000000E+000	  0.000000E+000	  0.000000E+000	  0.000000E+000	  0.000000E+000	  2.196285E+001	 -8.643611E-001	  2.434114E+001	  2.520814E+000	  2.678382E+001	  5.726299E+000	  2.926120E+001	  8.753691E+000	  3.187900E+001	  1.171176E+001	  3.423042E+001	  1.403876E+001	  3.632013E+001	  1.589921E+001	  3.817983E+001	  1.745920E+001	  3.938030E+001	  1.831156E+001	  4.100112E+001	  1.955544E+001	  4.228027E+001	  2.037678E+001	  4.361338E+001	  2.098844E+001	  4.469404E+001	  2.103005E+001	  4.577885E+001	  2.083170E+001	  4.683336E+001	  2.032218E+001	  4.776997E+001	  1.939956E+001	  4.882811E+001	  1.782835E+001	  4.989754E+001	  1.378031E+001	  5.065367E+001	 -2.141967E+000	  5.175261E+001	  1.104734E+001	  5.334433E+001	  1.662736E+001	  5.254711E+001	 -8.361023E+000
         0.4000	  0.000000E+000	  0.000000E+000	  0.000000E+000	  0.000000E+000	  0.000000E+000	  0.000000E+000	  0.000000E+000	  0.000000E+000	  0.000000E+000	  0.000000E+000	  0.000000E+000	  0.000000E+000	  0.000000E+000	  0.000000E+000	  0.000000E+000	  0.000000E+000	  2.469231E+001	 -1.210006E+001	  2.644311E+001	 -1.595111E+001	  2.895614E+001	 -4.819440E+000	  3.128093E+001	  2.036920E+000	  3.345943E+001	  6.808920E+000	  3.568137E+001	  1.082610E+001	  3.751140E+001	  1.413299E+001	  3.933495E+001	  1.704597E+001	  4.043916E+001	  1.908043E+001	  4.204270E+001	  2.137063E+001	  4.331010E+001	  2.332643E+001	  4.449116E+001	  2.518666E+001	  4.561934E+001	  2.695103E+001	  4.668656E+001	  2.859175E+001	  4.768484E+001	  3.013276E+001	  4.864706E+001	  3.158075E+001	  4.975289E+001	  3.317656E+001	  5.083856E+001	  3.481497E+001	  5.156892E+001	  3.616466E+001	  5.251592E+001	  3.771912E+001	  5.434913E+001	  3.997100E+001	  5.363994E+001	  3.905815E+001	  0.000000E+000	  0.000000E+000	  0.000000E+000	  0.000000E+000	  0.000000E+000	  0.000000E+000	  0.000000E+000	  0.000000E+000	  0.000000E+000	  0.000000E+000	  0.000000E+000	  0.000000E+000	  0.000000E+000	  0.000000E+000	  0.000000E+000	  0.000000E+000	  2.650593E+001	  2.710304E+001	  2.822729E+001	  2.767635E+001	  3.073644E+001	  2.900975E+001	  3.290023E+001	  2.953907E+001	  3.525119E+001	  3.035663E+001	  3.741605E+001	  3.106385E+001	  3.929011E+001	  3.110724E+001	  4.108611E+001	  3.194178E+001	  4.218123E+001	  3.113557E+001	  4.385487E+001	  3.273217E+001	  4.508923E+001	  3.257599E+001	  4.644038E+001	  3.372510E+001	  4.757551E+001	  3.430209E+001	  4.871490E+001	  3.540919E+001	  4.981772E+001	  3.623832E+001	  5.079847E+001	  3.643885E+001	  5.191718E+001	  3.744430E+001	  5.309820E+001	  3.920479E+001	  5.391445E+001	  4.008676E+001	  5.494027E+001	  4.033508E+001	  5.681421E+001	  4.244249E+001	  5.669407E+001	  4.341410E+001	  0.000000E+000	  0.000000E+000	  0.000000E+000	  0.000000E+000	  0.000000E+000	  0.000000E+000	  0.000000E+000	  0.000000E+000	  0.000000E+000	  0.000000E+000	  0.000000E+000	  0.000000E+000	  0.000000E+000	  0.000000E+000	  0.000000E+000	  0.000000E+000	  2.202408E+001	 -6.111324E+000	  2.439628E+001	 -1.391323E+000	  2.694315E+001	  2.685757E+000	  2.948376E+001	  6.273583E+000	  3.211554E+001	  9.462293E+000	  3.453349E+001	  1.187538E+001	  3.659619E+001	  1.359093E+001	  3.850606E+001	  1.501205E+001	  3.970313E+001	  1.560440E+001	  4.131825E+001	  1.649845E+001	  4.261492E+001	  1.692206E+001	  4.386272E+001	  1.678954E+001	  4.496130E+001	  1.578200E+001	  4.601125E+001	  1.382026E+001	  4.701624E+001	  1.002082E+001	  4.791499E+001	  2.929767E-001	  4.898868E+001	  4.927357E+000	  5.003302E+001	  1.525041E+001	  5.074624E+001	  2.027946E+001	  5.170693E+001	  2.351212E+001	  5.350526E+001	  2.560004E+001	  5.240754E+001	  1.862836E+001
         0.5000	  0.000000E+000	  0.000000E+000	  0.000000E+000	  0.000000E+000	  0.000000E+000	  0.000000E+000	  0.000000E+000	  0.000000E+000	  0.000000E+000	  0.000000E+000	  0.000000E+000	  0.000000E+000	  0.000000E+000	  0.000000E+000	  0.000000E+000	  0.000000E+000	  2.497059E+001	 -1.486747E+001	  2.666303E+001	 -7.877463E+000	  2.913891E+001	 -4.757326E-001	  3.138653E+001	  4.691024E+000	  3.359323E+001	  8.832495E+000	  3.579461E+001	  1.250464E+001	  3.763840E+001	  1.562788E+001	  3.946971E+001	  1.842619E+001	  4.055726E+001	  2.036833E+001	  4.217921E+001	  2.262331E+001	  4.339789E+001	  2.449899E+001	  4.466947E+001	  2.639101E+001	  4.577691E+001	  2.810708E+001	  4.682352E+001	  2.970456E+001	  4.785174E+001	  3.124182E+001	  4.876196E+001	  3.261953E+001	  4.982765E+001	  3.415099E+001	  5.095288E+001	  3.577608E+001	  5.172418E+001	  3.709876E+001	  5.271444E+001	  3.862356E+001	  5.459606E+001	  4.082599E+001	  5.390500E+001	  3.979328E+001	  0.000000E+000	  0.000000E+000	  0.000000E+000	  0.000000E+000	  0.000000E+000	  0.000000E+000	  0.000000E+000	  0.000000E+000	  0.000000E+000	  0.000000E+000	  0.000000E+000	  0.000000E+000	  0.000000E+000	  0.000000E+000	  0.000000E+000	  0.000000E+000	  2.641874E+001	  2.868814E+001	  2.819265E+001	  2.969773E+001	  3.062802E+001	  3.131273E+001	  3.281323E+001	  3.221848E+001	  3.521030E+001	  3.339241E+001	  3.739857E+001	  3.427696E+001	  3.934250E+001	  3.454447E+001	  4.111601E+001	  3.526756E+001	  4.228823E+001	  3.466522E+001	  4.389221E+001	  3.584289E+001	  4.511364E+001	  3.531112E+001	  4.647238E+001	  3.651114E+001	  4.756767E+001	  3.667623E+001	  4.865407E+001	  3.743225E+001	  4.973898E+001	  3.815167E+001	  5.069643E+001	  3.805270E+001	  5.175638E+001	  3.848947E+001	  5.291655E+001	  4.041622E+001	  5.372816E+001	  4.134586E+001	  5.476060E+001	  4.107290E+001	  5.672750E+001	  4.411470E+001	  5.654629E+001	  4.457415E+001	  0.000000E+000	  0.000000E+000	  0.000000E+000	  0.000000E+000	  0.000000E+000	  0.000000E+000	  0.000000E+000	  0.000000E+000	  0.000000E+000	  0.000000E+000	  0.000000E+000	  0.000000E+000	  0.000000E+000	  0.000000E+000	  0.000000E+000	  0.000000E+000	  2.199232E+001	 -1.447885E+001	  2.437423E+001	 -7.674043E+000	  2.683701E+001	 -1.693599E+000	  2.930421E+001	  2.846611E+000	  3.192969E+001	  6.512639E+000	  3.431444E+001	  9.071778E+000	  3.641990E+001	  1.085197E+001	  3.828179E+001	  1.220451E+001	  3.952036E+001	  1.273764E+001	  4.109285E+001	  1.344070E+001	  4.236427E+001	  1.364770E+001	  4.367257E+001	  1.320445E+001	  4.472723E+001	  1.130879E+001	  4.576008E+001	  7.487162E+000	  4.677280E+001	 -3.893021E+000	  4.766917E+001	  2.918909E+000	  4.867374E+001	  1.195696E+001	  4.971930E+001	  1.736641E+001	  5.046155E+001	  2.076677E+001	  5.157586E+001	  2.321808E+001	  5.307059E+001	  2.404584E+001	  5.235679E+001	  1.383244E+001
         0.6000	  0.000000E+000	  0.000000E+000	  0.000000E+000	  0.000000E+000	  0.000000E+000	  0.000000E+000	  0.000000E+000	  0.000000E+000	  0.000000E+000	  0.000000E+000	  0.000000E+000	  0.000000E+000	  0.000000E+000	  0.000000E+000	  0.000000E+000	  0.000000E+000	  2.570467E+001	 -9.337309E+000	  2.749335E+001	 -2.459389E+000	  2.983701E+001	  2.806165E+000	  3.194902E+001	  6.989478E+000	  3.424369E+001	  1.075760E+001	  3.638711E+001	  1.412163E+001	  3.829684E+001	  1.712017E+001	  3.999839E+001	  1.969759E+001	  4.116147E+001	  2.160523E+001	  4.264586E+001	  2.369075E+001	  4.384481E+001	  2.548916E+001	  4.508883E+001	  2.732234E+001	  4.609656E+001	  2.890452E+001	  4.713922E+001	  3.046125E+001	  4.813540E+001	  3.194066E+001	  4.904729E+001	  3.329255E+001	  5.001772E+001	  3.472076E+001	  5.108821E+001	  3.627235E+001	  5.187361E+001	  3.757050E+001	  5.308771E+001	  3.923930E+001	  5.446146E+001	  4.100455E+001	  5.422335E+001	  4.021808E+001	  0.000000E+000	  0.000000E+000	  0.000000E+000	  0.000000E+000	  0.000000E+000	  0.000000E+000	  0.000000E+000	  0.000000E+000	  0.000000E+000	  0.000000E+000	  0.000000E+000	  0.000000E+000	  0.000000E+000	  0.000000E+000	  0.000000E+000	  0.000000E+000	  2.673066E+001	  2.929087E+001	  2.882668E+001	  3.090407E+001	  3.123766E+001	  3.277813E+001	  3.348171E+001	  3.419585E+001	  3.590345E+001	  3.590459E+001	  3.801996E+001	  3.711096E+001	  4.007971E+001	  3.825279E+001	  4.182667E+001	  3.931601E+001	  4.306550E+001	  3.955153E+001	  4.457085E+001	  4.051178E+001	  4.584355E+001	  4.075559E+001	  4.712358E+001	  4.160436E+001	  4.815703E+001	  4.162160E+001	  4.922602E+001	  4.241659E+001	  5.023630E+001	  4.273613E+001	  5.120057E+001	  4.291560E+001	  5.218413E+001	  4.277602E+001	  5.316071E+001	  4.301158E+001	  5.397757E+001	  4.415126E+001	  5.524542E+001	  4.515267E+001	  5.678534E+001	  4.502104E+001	  5.641914E+001	  4.534610E+001	  0.000000E+000	  0.000000E+000	  0.000000E+000	  0.000000E+000	  0.000000E+000	  0.000000E+000	  0.000000E+000	  0.000000E+000	  0.000000E+000	  0.000000E+000	  0.000000E+000	  0.000000E+000	  0.000000E+000	  0.000000E+000	  0.000000E+000	  0.000000E+000	  2.272873E+001	 -1.271776E+001	  2.495404E+001	 -1.425535E+001	  2.713410E+001	 -6.655374E+000	  2.974982E+001	  7.963602E-002	  3.215679E+001	  4.356001E+000	  3.433397E+001	  7.085826E+000	  3.647804E+001	  9.106522E+000	  3.813514E+001	  1.045330E+001	  3.948299E+001	  1.120775E+001	  4.088162E+001	  1.192659E+001	  4.217815E+001	  1.227138E+001	  4.340874E+001	  1.197548E+001	  4.440687E+001	  1.033435E+001	  4.539859E+001	  7.239685E+000	  4.641001E+001	  1.100518E-001	  4.733359E+001	 -6.447661E+000	  4.829988E+001	  7.001652E+000	  4.923276E+001	  1.294599E+001	  5.003511E+001	  1.633558E+001	  5.128099E+001	  1.838798E+001	  5.265089E+001	  1.684953E+001	  5.319805E+001	  1.269750E+001