
FAST Summary File

Predictions were generated on 10-Mar-2020 at 13:04:55 using OpenFAST, compiled as a 64-bit application using double precision at commit v1.0.0-450-g6bd2e0a4
  compiled with
    NWTC Subroutine Library
    ElastoDyn
    BeamDyn [not called]
    InflowWind
    AeroDyn14
    AeroDyn [not called]
    ServoDyn
    HydroDyn [not called]
    SubDyn [not called]
    ExtPtfm_MCKF [not called]
    MAP [not called]
    FEAMooring [not called]
    MoorDyn [not called]
    OrcaFlexInterface [not called]
    IceFloe [not called]
    IceDyn [not called]


Modeling a land-based turbine
Description from the FAST input file: 
  FAST Certification Test #16: SWRT 3-bladed upwind turbine with many DOFs, variable speed control, free yaw, tail-furl, EDC01 event

Interpolation order for input/output time histories: 2 (quadratic)
Number of correction iterations:  0


   Requested Time Steps  
  -------------------------------------------------
  Component          Time Step (s)    Subcycles (-)
  -----------------  ---------------  -------------
  FAST (glue code)    1.000E-03
  InflowWind          1.000E-03              1
  ElastoDyn           1.000E-03              1
  AeroDyn14           1.000E-03              1
  ServoDyn            1.000E-03              1
  FAST output files   8.000E-03              8^-1


   Requested Channels in FAST Output File(s)  
  --------------------------------------------
  Number  Name        Units       Generated by
  ------  ----------  ----------  ------------
       1  Time        (s)         OpenFAST
       2  Wind1VelX   (m/s)       InflowWind
       3  Wind1VelY   (m/s)       InflowWind
       4  Wind1VelZ   (m/s)       InflowWind
       5  RotSpeed    (rpm)       ElastoDyn
       6  TailFurlP   (deg)       ElastoDyn
       7  TailFurlV   (deg/s)     ElastoDyn
       8  TailFurlA   (deg/s^2)   ElastoDyn
       9  NacYawP     (deg)       ElastoDyn
      10  RootFxc3    (kN)        ElastoDyn
      11  RootFyc3    (kN)        ElastoDyn
      12  RootMxc1    (kN-m)      ElastoDyn
      13  RootMyc1    (kN-m)      ElastoDyn
      14  RotThrust   (kN)        ElastoDyn
      15  RotTorq     (kN-m)      ElastoDyn
      16  RotPwr      (kW)        ElastoDyn
      17  TFrlBrM     (kN-m)      ElastoDyn
