
FAST Summary File

Predictions were generated on 30-Sep-2017 at 10:29:27 using OpenFAST, compiled as a 64-bit application using double precision at commit v0.1.0-886-g076466cd
  compiled with
    NWTC Subroutine Library
    ElastoDyn
    BeamDyn [not called]
    InflowWind
    AeroDyn14 [not called]
    AeroDyn
    ServoDyn
    HydroDyn [not called]
    SubDyn [not called]
    ExtPtfm_MCKF [not called]
    MAP [not called]
    FEAMooring [not called]
    MoorDyn [not called]
    OrcaFlexInterface [not called]
    IceFloe [not called]
    IceDyn [not called]


Modeling a land-based turbine
Description from the FAST input file: 
  FAST Certification Test #15: SWRT 3-bladed upwind turbine with many DOFs, variable speed control, free yaw, tail-furl, EOG01 event

Interpolation order for input/output time histories: 2 (quadratic)
Number of correction iterations:  0


   Requested Time Steps  
  -------------------------------------------------
  Component          Time Step (s)    Subcycles (-)
  -----------------  ---------------  -------------
  FAST (glue code)    1.000E-03
  InflowWind          1.000E-03              1
  ElastoDyn           1.000E-03              1
  AeroDyn             1.000E-03              1
  ServoDyn            1.000E-03              1
  FAST output files   8.000E-03              8^-1


   Requested Channels in FAST Output File(s)  
  --------------------------------------------
  Number  Name        Units       Generated by
  ------  ----------  ----------  ------------
       1  Time        (s)         OpenFAST
       2  Wind1VelX   (m/s)       InflowWind
       3  Wind1VelY   (m/s)       InflowWind
       4  Wind1VelZ   (m/s)       InflowWind
       5  TipClrnc1   (m)         ElastoDyn
       6  TipClrnc2   (m)         ElastoDyn
       7  TipClrnc3   (m)         ElastoDyn
       8  RotSpeed    (rpm)       ElastoDyn
       9  TailFurlP   (deg)       ElastoDyn
      10  TailFurlV   (deg/s)     ElastoDyn
      11  TailFurlA   (deg/s^2)   ElastoDyn
      12  NacYawP     (deg)       ElastoDyn
      13  RotThrust   (kN)        ElastoDyn
      14  TFrlBrM     (kN-m)      ElastoDyn
      15  RtTSR       (-)         AeroDyn
      16  RtSkew      (deg)       AeroDyn
      17  RtAeroCp    (-)         AeroDyn
      18  RtAeroCq    (-)         AeroDyn
      19  RtAeroCt    (-)         AeroDyn
      20  RtAeroFxh   (N)         AeroDyn
      21  RtAeroFyh   (N)         AeroDyn
      22  RtAeroFzh   (N)         AeroDyn
      23  RtAeroMxh   (N-m)       AeroDyn
      24  RtAeroMyh   (N-m)       AeroDyn
      25  RtAeroMzh   (N-m)       AeroDyn
