
Predictions were generated on 23-Apr-2022 at 11:43:21 using AeroDisk




Time	ADSpeed             	ADTSR               	ADPitch             	ADVWindx            	ADVWindy            	ADVWindz            	ADSTVx              	ADSTVy              	ADSTVz              	ADVRel              	ADSkew              	ADCp                	ADCt                	ADCq                	ADFx                	ADFy                	ADFz                	ADMx                	ADMy                	ADMz                	ADPower             
(s)	(rpm)	(-)	(deg)	(m/s)	(m/s)	(m/s)	(m/s)	(m/s)	(m/s)	(m/s)	(deg)	(-)	(-)	(-)	(N)	(N)	(N)	(N-m)	(N-m)	(N-m)	(W)
       0.000000	  9.899998664856E+00	  8.164213180542E+00	 -7.500000000000E-01	  8.000000000000E+00	  0.000000000000E+00	  0.000000000000E+00	  0.000000000000E+00	  0.000000000000E+00	  0.000000000000E+00	  8.000000000000E+00	  0.000000000000E+00	  4.576443731785E-01	  8.613351583481E-01	  5.605492368340E-02	  4.210069375000E+05	  0.000000000000E+00	  0.000000000000E+00	  1.726121625000E+06	  0.000000000000E+00	  0.000000000000E+00	  1.789514375000E+06
       0.019989	  9.899998664856E+00	  8.164213180542E+00	 -7.500000000000E-01	  8.000000000000E+00	  0.000000000000E+00	  0.000000000000E+00	  0.000000000000E+00	  0.000000000000E+00	  0.000000000000E+00	  8.000000000000E+00	  0.000000000000E+00	  4.576443731785E-01	  8.613351583481E-01	  5.605492368340E-02	  4.210069375000E+05	  0.000000000000E+00	  0.000000000000E+00	  1.726121625000E+06	  0.000000000000E+00	  0.000000000000E+00	  1.789514375000E+06
       0.039978	  9.899998664856E+00	  8.164213180542E+00	 -7.500000000000E-01	  8.000000000000E+00	  0.000000000000E+00	  0.000000000000E+00	  0.000000000000E+00	  0.000000000000E+00	  0.000000000000E+00	  8.000000000000E+00	  0.000000000000E+00	  4.576443731785E-01	  8.613351583481E-01	  5.605492368340E-02	  4.210069375000E+05	  0.000000000000E+00	  0.000000000000E+00	  1.726121625000E+06	  0.000000000000E+00	  0.000000000000E+00	  1.789514375000E+06
       0.059967	  9.899998664856E+00	  8.164213180542E+00	 -7.500000000000E-01	  8.000000000000E+00	  0.000000000000E+00	  0.000000000000E+00	  0.000000000000E+00	  0.000000000000E+00	  0.000000000000E+00	  8.000000000000E+00	  0.000000000000E+00	  4.576443731785E-01	  8.613351583481E-01	  5.605492368340E-02	  4.210069375000E+05	  0.000000000000E+00	  0.000000000000E+00	  1.726121625000E+06	  0.000000000000E+00	  0.000000000000E+00	  1.789514375000E+06
       0.079956	  9.899998664856E+00	  8.164213180542E+00	 -7.500000000000E-01	  8.000000000000E+00	  0.000000000000E+00	  0.000000000000E+00	  0.000000000000E+00	  0.000000000000E+00	  0.000000000000E+00	  8.000000000000E+00	  0.000000000000E+00	  4.576443731785E-01	  8.613351583481E-01	  5.605492368340E-02	  4.210069375000E+05	  0.000000000000E+00	  0.000000000000E+00	  1.726121625000E+06	  0.000000000000E+00	  0.000000000000E+00	  1.789514375000E+06
       0.099945	  9.899998664856E+00	  8.164213180542E+00	 -7.500000000000E-01	  8.000000000000E+00	  0.000000000000E+00	  0.000000000000E+00	  0.000000000000E+00	  0.000000000000E+00	  0.000000000000E+00	  8.000000000000E+00	  0.000000000000E+00	  4.576443731785E-01	  8.613351583481E-01	  5.605492368340E-02	  4.210069375000E+05	  0.000000000000E+00	  0.000000000000E+00	  1.726121625000E+06	  0.000000000000E+00	  0.000000000000E+00	  1.789514375000E+06
       0.119934	  9.899998664856E+00	  8.164213180542E+00	 -7.500000000000E-01	  8.000000000000E+00	  0.000000000000E+00	  0.000000000000E+00	  0.000000000000E+00	  0.000000000000E+00	  0.000000000000E+00	  8.000000000000E+00	  0.000000000000E+00	  4.576443731785E-01	  8.613351583481E-01	  5.605492368340E-02	  4.210069375000E+05	  0.000000000000E+00	  0.000000000000E+00	  1.726121625000E+06	  0.000000000000E+00	  0.000000000000E+00	  1.789514375000E+06
       0.139923	  9.899998664856E+00	  8.164213180542E+00	 -7.500000000000E-01	  8.000000000000E+00	  0.000000000000E+00	  0.000000000000E+00	  0.000000000000E+00	  0.000000000000E+00	  0.000000000000E+00	  8.000000000000E+00	  0.000000000000E+00	  4.576443731785E-01	  8.613351583481E-01	  5.605492368340E-02	  4.210069375000E+05	  0.000000000000E+00	  0.000000000000E+00	  1.726121625000E+06	  0.000000000000E+00	  0.000000000000E+00	  1.789514375000E+06
       0.159912	  9.899998664856E+00	  8.164213180542E+00	 -7.500000000000E-01	  8.000000000000E+00	  0.000000000000E+00	  0.000000000000E+00	  0.000000000000E+00	  0.000000000000E+00	  0.000000000000E+00	  8.000000000000E+00	  0.000000000000E+00	  4.576443731785E-01	  8.613351583481E-01	  5.605492368340E-02	  4.210069375000E+05	  0.000000000000E+00	  0.000000000000E+00	  1.726121625000E+06	  0.000000000000E+00	  0.000000000000E+00	  1.789514375000E+06
       0.179901	  9.899998664856E+00	  8.164213180542E+00	 -7.500000000000E-01	  8.000000000000E+00	  0.000000000000E+00	  0.000000000000E+00	  0.000000000000E+00	  0.000000000000E+00	  0.000000000000E+00	  8.000000000000E+00	  0.000000000000E+00	  4.576443731785E-01	  8.613351583481E-01	  5.605492368340E-02	  4.210069375000E+05	  0.000000000000E+00	  0.000000000000E+00	  1.726121625000E+06	  0.000000000000E+00	  0.000000000000E+00	  1.789514375000E+06
       0.199890	  9.899998664856E+00	  8.164213180542E+00	 -7.500000000000E-01	  8.000000000000E+00	  0.000000000000E+00	  0.000000000000E+00	  0.000000000000E+00	  0.000000000000E+00	  0.000000000000E+00	  8.000000000000E+00	  0.000000000000E+00	  4.576443731785E-01	  8.613351583481E-01	  5.605492368340E-02	  4.210069375000E+05	  0.000000000000E+00	  0.000000000000E+00	  1.726121625000E+06	  0.000000000000E+00	  0.000000000000E+00	  1.789514375000E+06
       0.219879	  9.899998664856E+00	  8.164213180542E+00	 -7.500000000000E-01	  8.000000000000E+00	  0.000000000000E+00	  0.000000000000E+00	  0.000000000000E+00	  0.000000000000E+00	  0.000000000000E+00	  8.000000000000E+00	  0.000000000000E+00	  4.576443731785E-01	  8.613351583481E-01	  5.605492368340E-02	  4.210069375000E+05	  0.000000000000E+00	  0.000000000000E+00	  1.726121625000E+06	  0.000000000000E+00	  0.000000000000E+00	  1.789514375000E+06
       0.239868	  9.899998664856E+00	  8.164213180542E+00	 -7.500000000000E-01	  8.000000000000E+00	  0.000000000000E+00	  0.000000000000E+00	  0.000000000000E+00	  0.000000000000E+00	  0.000000000000E+00	  8.000000000000E+00	  0.000000000000E+00	  4.576443731785E-01	  8.613351583481E-01	  5.605492368340E-02	  4.210069375000E+05	  0.000000000000E+00	  0.000000000000E+00	  1.726121625000E+06	  0.000000000000E+00	  0.000000000000E+00	  1.789514375000E+06
       0.259857	  9.899998664856E+00	  8.164213180542E+00	 -7.500000000000E-01	  8.000000000000E+00	  0.000000000000E+00	  0.000000000000E+00	  0.000000000000E+00	  0.000000000000E+00	  0.000000000000E+00	  8.000000000000E+00	  0.000000000000E+00	  4.576443731785E-01	  8.613351583481E-01	  5.605492368340E-02	  4.210069375000E+05	  0.000000000000E+00	  0.000000000000E+00	  1.726121625000E+06	  0.000000000000E+00	  0.000000000000E+00	  1.789514375000E+06
       0.279846	  9.899998664856E+00	  8.164213180542E+00	 -7.500000000000E-01	  8.000000000000E+00	  0.000000000000E+00	  0.000000000000E+00	  0.000000000000E+00	  0.000000000000E+00	  0.000000000000E+00	  8.000000000000E+00	  0.000000000000E+00	  4.576443731785E-01	  8.613351583481E-01	  5.605492368340E-02	  4.210069375000E+05	  0.000000000000E+00	  0.000000000000E+00	  1.726121625000E+06	  0.000000000000E+00	  0.000000000000E+00	  1.789514375000E+06
       0.299835	  9.899998664856E+00	  8.164213180542E+00	 -7.500000000000E-01	  8.000000000000E+00	  0.000000000000E+00	  0.000000000000E+00	  0.000000000000E+00	  0.000000000000E+00	  0.000000000000E+00	  8.000000000000E+00	  0.000000000000E+00	  4.576443731785E-01	  8.613351583481E-01	  5.605492368340E-02	  4.210069375000E+05	  0.000000000000E+00	  0.000000000000E+00	  1.726121625000E+06	  0.000000000000E+00	  0.000000000000E+00	  1.789514375000E+06
       0.319824	  9.899998664856E+00	  8.164213180542E+00	 -7.500000000000E-01	  8.000000000000E+00	  0.000000000000E+00	  0.000000000000E+00	  0.000000000000E+00	  0.000000000000E+00	  0.000000000000E+00	  8.000000000000E+00	  0.000000000000E+00	  4.576443731785E-01	  8.613351583481E-01	  5.605492368340E-02	  4.210069375000E+05	  0.000000000000E+00	  0.000000000000E+00	  1.726121625000E+06	  0.000000000000E+00	  0.000000000000E+00	  1.789514375000E+06
       0.339813	  9.899998664856E+00	  8.164213180542E+00	 -7.500000000000E-01	  8.000000000000E+00	  0.000000000000E+00	  0.000000000000E+00	  0.000000000000E+00	  0.000000000000E+00	  0.000000000000E+00	  8.000000000000E+00	  0.000000000000E+00	  4.576443731785E-01	  8.613351583481E-01	  5.605492368340E-02	  4.210069375000E+05	  0.000000000000E+00	  0.000000000000E+00	  1.726121625000E+06	  0.000000000000E+00	  0.000000000000E+00	  1.789514375000E+06
       0.359802	  9.899998664856E+00	  8.164213180542E+00	 -7.500000000000E-01	  8.000000000000E+00	  0.000000000000E+00	  0.000000000000E+00	  0.000000000000E+00	  0.000000000000E+00	  0.000000000000E+00	  8.000000000000E+00	  0.000000000000E+00	  4.576443731785E-01	  8.613351583481E-01	  5.605492368340E-02	  4.210069375000E+05	  0.000000000000E+00	  0.000000000000E+00	  1.726121625000E+06	  0.000000000000E+00	  0.000000000000E+00	  1.789514375000E+06
       0.379791	  9.899998664856E+00	  8.164213180542E+00	 -7.500000000000E-01	  8.000000000000E+00	  0.000000000000E+00	  0.000000000000E+00	  0.000000000000E+00	  0.000000000000E+00	  0.000000000000E+00	  8.000000000000E+00	  0.000000000000E+00	  4.576443731785E-01	  8.613351583481E-01	  5.605492368340E-02	  4.210069375000E+05	  0.000000000000E+00	  0.000000000000E+00	  1.726121625000E+06	  0.000000000000E+00	  0.000000000000E+00	  1.789514375000E+06
       0.399780	  9.899998664856E+00	  8.164213180542E+00	 -7.500000000000E-01	  8.000000000000E+00	  0.000000000000E+00	  0.000000000000E+00	  0.000000000000E+00	  0.000000000000E+00	  0.000000000000E+00	  8.000000000000E+00	  0.000000000000E+00	  4.576443731785E-01	  8.613351583481E-01	  5.605492368340E-02	  4.210069375000E+05	  0.000000000000E+00	  0.000000000000E+00	  1.726121625000E+06	  0.000000000000E+00	  0.000000000000E+00	  1.789514375000E+06
       0.419769	  9.899998664856E+00	  8.164213180542E+00	 -7.500000000000E-01	  8.000000000000E+00	  0.000000000000E+00	  0.000000000000E+00	  0.000000000000E+00	  0.000000000000E+00	  0.000000000000E+00	  8.000000000000E+00	  0.000000000000E+00	  4.576443731785E-01	  8.613351583481E-01	  5.605492368340E-02	  4.210069375000E+05	  0.000000000000E+00	  0.000000000000E+00	  1.726121625000E+06	  0.000000000000E+00	  0.000000000000E+00	  1.789514375000E+06
       0.439758	  9.899998664856E+00	  8.164213180542E+00	 -7.500000000000E-01	  8.000000000000E+00	  0.000000000000E+00	  0.000000000000E+00	  0.000000000000E+00	  0.000000000000E+00	  0.000000000000E+00	  8.000000000000E+00	  0.000000000000E+00	  4.576443731785E-01	  8.613351583481E-01	  5.605492368340E-02	  4.210069375000E+05	  0.000000000000E+00	  0.000000000000E+00	  1.726121625000E+06	  0.000000000000E+00	  0.000000000000E+00	  1.789514375000E+06
       0.459747	  9.899998664856E+00	  8.164213180542E+00	 -7.500000000000E-01	  8.000000000000E+00	  0.000000000000E+00	  0.000000000000E+00	  0.000000000000E+00	  0.000000000000E+00	  0.000000000000E+00	  8.000000000000E+00	  0.000000000000E+00	  4.576443731785E-01	  8.613351583481E-01	  5.605492368340E-02	  4.210069375000E+05	  0.000000000000E+00	  0.000000000000E+00	  1.726121625000E+06	  0.000000000000E+00	  0.000000000000E+00	  1.789514375000E+06
       0.479736	  9.899998664856E+00	  8.164213180542E+00	 -7.500000000000E-01	  8.000000000000E+00	  0.000000000000E+00	  0.000000000000E+00	  0.000000000000E+00	  0.000000000000E+00	  0.000000000000E+00	  8.000000000000E+00	  0.000000000000E+00	  4.576443731785E-01	  8.613351583481E-01	  5.605492368340E-02	  4.210069375000E+05	  0.000000000000E+00	  0.000000000000E+00	  1.726121625000E+06	  0.000000000000E+00	  0.000000000000E+00	  1.789514375000E+06
       0.499725	  9.899998664856E+00	  8.164213180542E+00	 -7.500000000000E-01	  8.000000000000E+00	  0.000000000000E+00	  0.000000000000E+00	  0.000000000000E+00	  0.000000000000E+00	  0.000000000000E+00	  8.000000000000E+00	  0.000000000000E+00	  4.576443731785E-01	  8.613351583481E-01	  5.605492368340E-02	  4.210069375000E+05	  0.000000000000E+00	  0.000000000000E+00	  1.726121625000E+06	  0.000000000000E+00	  0.000000000000E+00	  1.789514375000E+06
       0.519714	  9.899998664856E+00	  8.164213180542E+00	 -7.500000000000E-01	  8.000000000000E+00	  0.000000000000E+00	  0.000000000000E+00	  0.000000000000E+00	  0.000000000000E+00	  0.000000000000E+00	  8.000000000000E+00	  0.000000000000E+00	  4.576443731785E-01	  8.613351583481E-01	  5.605492368340E-02	  4.210069375000E+05	  0.000000000000E+00	  0.000000000000E+00	  1.726121625000E+06	  0.000000000000E+00	  0.000000000000E+00	  1.789514375000E+06
       0.539703	  9.899998664856E+00	  8.164213180542E+00	 -7.500000000000E-01	  8.000000000000E+00	  0.000000000000E+00	  0.000000000000E+00	  0.000000000000E+00	  0.000000000000E+00	  0.000000000000E+00	  8.000000000000E+00	  0.000000000000E+00	  4.576443731785E-01	  8.613351583481E-01	  5.605492368340E-02	  4.210069375000E+05	  0.000000000000E+00	  0.000000000000E+00	  1.726121625000E+06	  0.000000000000E+00	  0.000000000000E+00	  1.789514375000E+06
       0.559692	  9.899998664856E+00	  8.164213180542E+00	 -7.500000000000E-01	  8.000000000000E+00	  0.000000000000E+00	  0.000000000000E+00	  0.000000000000E+00	  0.000000000000E+00	  0.000000000000E+00	  8.000000000000E+00	  0.000000000000E+00	  4.576443731785E-01	  8.613351583481E-01	  5.605492368340E-02	  4.210069375000E+05	  0.000000000000E+00	  0.000000000000E+00	  1.726121625000E+06	  0.000000000000E+00	  0.000000000000E+00	  1.789514375000E+06
       0.579681	  9.899998664856E+00	  8.164213180542E+00	 -7.500000000000E-01	  8.000000000000E+00	  0.000000000000E+00	  0.000000000000E+00	  0.000000000000E+00	  0.000000000000E+00	  0.000000000000E+00	  8.000000000000E+00	  0.000000000000E+00	  4.576443731785E-01	  8.613351583481E-01	  5.605492368340E-02	  4.210069375000E+05	  0.000000000000E+00	  0.000000000000E+00	  1.726121625000E+06	  0.000000000000E+00	  0.000000000000E+00	  1.789514375000E+06
       0.599670	  9.899998664856E+00	  8.164213180542E+00	 -7.500000000000E-01	  8.000000000000E+00	  0.000000000000E+00	  0.000000000000E+00	  0.000000000000E+00	  0.000000000000E+00	  0.000000000000E+00	  8.000000000000E+00	  0.000000000000E+00	  4.576443731785E-01	  8.613351583481E-01	  5.605492368340E-02	  4.210069375000E+05	  0.000000000000E+00	  0.000000000000E+00	  1.726121625000E+06	  0.000000000000E+00	  0.000000000000E+00	  1.789514375000E+06
       0.619659	  9.899998664856E+00	  8.164213180542E+00	 -7.500000000000E-01	  8.000000000000E+00	  0.000000000000E+00	  0.000000000000E+00	  0.000000000000E+00	  0.000000000000E+00	  0.000000000000E+00	  8.000000000000E+00	  0.000000000000E+00	  4.576443731785E-01	  8.613351583481E-01	  5.605492368340E-02	  4.210069375000E+05	  0.000000000000E+00	  0.000000000000E+00	  1.726121625000E+06	  0.000000000000E+00	  0.000000000000E+00	  1.789514375000E+06
       0.639648	  9.899998664856E+00	  8.164213180542E+00	 -7.500000000000E-01	  8.000000000000E+00	  0.000000000000E+00	  0.000000000000E+00	  0.000000000000E+00	  0.000000000000E+00	  0.000000000000E+00	  8.000000000000E+00	  0.000000000000E+00	  4.576443731785E-01	  8.613351583481E-01	  5.605492368340E-02	  4.210069375000E+05	  0.000000000000E+00	  0.000000000000E+00	  1.726121625000E+06	  0.000000000000E+00	  0.000000000000E+00	  1.789514375000E+06
       0.659637	  9.899998664856E+00	  8.164213180542E+00	 -7.500000000000E-01	  8.000000000000E+00	  0.000000000000E+00	  0.000000000000E+00	  0.000000000000E+00	  0.000000000000E+00	  0.000000000000E+00	  8.000000000000E+00	  0.000000000000E+00	  4.576443731785E-01	  8.613351583481E-01	  5.605492368340E-02	  4.210069375000E+05	  0.000000000000E+00	  0.000000000000E+00	  1.726121625000E+06	  0.000000000000E+00	  0.000000000000E+00	  1.789514375000E+06
       0.679626	  9.899998664856E+00	  8.164213180542E+00	 -7.500000000000E-01	  8.000000000000E+00	  0.000000000000E+00	  0.000000000000E+00	  0.000000000000E+00	  0.000000000000E+00	  0.000000000000E+00	  8.000000000000E+00	  0.000000000000E+00	  4.576443731785E-01	  8.613351583481E-01	  5.605492368340E-02	  4.210069375000E+05	  0.000000000000E+00	  0.000000000000E+00	  1.726121625000E+06	  0.000000000000E+00	  0.000000000000E+00	  1.789514375000E+06
       0.699615	  9.899998664856E+00	  8.164213180542E+00	 -7.500000000000E-01	  8.000000000000E+00	  0.000000000000E+00	  0.000000000000E+00	  0.000000000000E+00	  0.000000000000E+00	  0.000000000000E+00	  8.000000000000E+00	  0.000000000000E+00	  4.576443731785E-01	  8.613351583481E-01	  5.605492368340E-02	  4.210069375000E+05	  0.000000000000E+00	  0.000000000000E+00	  1.726121625000E+06	  0.000000000000E+00	  0.000000000000E+00	  1.789514375000E+06
       0.719604	  9.899998664856E+00	  8.164213180542E+00	 -7.500000000000E-01	  8.000000000000E+00	  0.000000000000E+00	  0.000000000000E+00	  0.000000000000E+00	  0.000000000000E+00	  0.000000000000E+00	  8.000000000000E+00	  0.000000000000E+00	  4.576443731785E-01	  8.613351583481E-01	  5.605492368340E-02	  4.210069375000E+05	  0.000000000000E+00	  0.000000000000E+00	  1.726121625000E+06	  0.000000000000E+00	  0.000000000000E+00	  1.789514375000E+06
       0.739594	  9.899998664856E+00	  8.164213180542E+00	 -7.500000000000E-01	  8.000000000000E+00	  0.000000000000E+00	  0.000000000000E+00	  0.000000000000E+00	  0.000000000000E+00	  0.000000000000E+00	  8.000000000000E+00	  0.000000000000E+00	  4.576443731785E-01	  8.613351583481E-01	  5.605492368340E-02	  4.210069375000E+05	  0.000000000000E+00	  0.000000000000E+00	  1.726121625000E+06	  0.000000000000E+00	  0.000000000000E+00	  1.789514375000E+06
       0.759583	  9.899998664856E+00	  8.164213180542E+00	 -7.500000000000E-01	  8.000000000000E+00	  0.000000000000E+00	  0.000000000000E+00	  0.000000000000E+00	  0.000000000000E+00	  0.000000000000E+00	  8.000000000000E+00	  0.000000000000E+00	  4.576443731785E-01	  8.613351583481E-01	  5.605492368340E-02	  4.210069375000E+05	  0.000000000000E+00	  0.000000000000E+00	  1.726121625000E+06	  0.000000000000E+00	  0.000000000000E+00	  1.789514375000E+06
       0.779572	  9.899998664856E+00	  8.164213180542E+00	 -7.500000000000E-01	  8.000000000000E+00	  0.000000000000E+00	  0.000000000000E+00	  0.000000000000E+00	  0.000000000000E+00	  0.000000000000E+00	  8.000000000000E+00	  0.000000000000E+00	  4.576443731785E-01	  8.613351583481E-01	  5.605492368340E-02	  4.210069375000E+05	  0.000000000000E+00	  0.000000000000E+00	  1.726121625000E+06	  0.000000000000E+00	  0.000000000000E+00	  1.789514375000E+06
       0.799561	  9.899998664856E+00	  8.164213180542E+00	 -7.500000000000E-01	  8.000000000000E+00	  0.000000000000E+00	  0.000000000000E+00	  0.000000000000E+00	  0.000000000000E+00	  0.000000000000E+00	  8.000000000000E+00	  0.000000000000E+00	  4.576443731785E-01	  8.613351583481E-01	  5.605492368340E-02	  4.210069375000E+05	  0.000000000000E+00	  0.000000000000E+00	  1.726121625000E+06	  0.000000000000E+00	  0.000000000000E+00	  1.789514375000E+06
       0.819550	  9.899998664856E+00	  8.164213180542E+00	 -7.500000000000E-01	  8.000000000000E+00	  0.000000000000E+00	  0.000000000000E+00	  0.000000000000E+00	  0.000000000000E+00	  0.000000000000E+00	  8.000000000000E+00	  0.000000000000E+00	  4.576443731785E-01	  8.613351583481E-01	  5.605492368340E-02	  4.210069375000E+05	  0.000000000000E+00	  0.000000000000E+00	  1.726121625000E+06	  0.000000000000E+00	  0.000000000000E+00	  1.789514375000E+06
       0.839539	  9.899998664856E+00	  8.164213180542E+00	 -7.500000000000E-01	  8.000000000000E+00	  0.000000000000E+00	  0.000000000000E+00	  0.000000000000E+00	  0.000000000000E+00	  0.000000000000E+00	  8.000000000000E+00	  0.000000000000E+00	  4.576443731785E-01	  8.613351583481E-01	  5.605492368340E-02	  4.210069375000E+05	  0.000000000000E+00	  0.000000000000E+00	  1.726121625000E+06	  0.000000000000E+00	  0.000000000000E+00	  1.789514375000E+06
       0.859528	  9.899998664856E+00	  8.164213180542E+00	 -7.500000000000E-01	  8.000000000000E+00	  0.000000000000E+00	  0.000000000000E+00	  0.000000000000E+00	  0.000000000000E+00	  0.000000000000E+00	  8.000000000000E+00	  0.000000000000E+00	  4.576443731785E-01	  8.613351583481E-01	  5.605492368340E-02	  4.210069375000E+05	  0.000000000000E+00	  0.000000000000E+00	  1.726121625000E+06	  0.000000000000E+00	  0.000000000000E+00	  1.789514375000E+06
       0.879517	  9.899998664856E+00	  8.164213180542E+00	 -7.500000000000E-01	  8.000000000000E+00	  0.000000000000E+00	  0.000000000000E+00	  0.000000000000E+00	  0.000000000000E+00	  0.000000000000E+00	  8.000000000000E+00	  0.000000000000E+00	  4.576443731785E-01	  8.613351583481E-01	  5.605492368340E-02	  4.210069375000E+05	  0.000000000000E+00	  0.000000000000E+00	  1.726121625000E+06	  0.000000000000E+00	  0.000000000000E+00	  1.789514375000E+06
       0.899506	  9.899998664856E+00	  8.164213180542E+00	 -7.500000000000E-01	  8.000000000000E+00	  0.000000000000E+00	  0.000000000000E+00	  0.000000000000E+00	  0.000000000000E+00	  0.000000000000E+00	  8.000000000000E+00	  0.000000000000E+00	  4.576443731785E-01	  8.613351583481E-01	  5.605492368340E-02	  4.210069375000E+05	  0.000000000000E+00	  0.000000000000E+00	  1.726121625000E+06	  0.000000000000E+00	  0.000000000000E+00	  1.789514375000E+06
       0.919495	  9.899998664856E+00	  8.164213180542E+00	 -7.500000000000E-01	  8.000000000000E+00	  0.000000000000E+00	  0.000000000000E+00	  0.000000000000E+00	  0.000000000000E+00	  0.000000000000E+00	  8.000000000000E+00	  0.000000000000E+00	  4.576443731785E-01	  8.613351583481E-01	  5.605492368340E-02	  4.210069375000E+05	  0.000000000000E+00	  0.000000000000E+00	  1.726121625000E+06	  0.000000000000E+00	  0.000000000000E+00	  1.789514375000E+06
       0.939484	  9.899998664856E+00	  8.164213180542E+00	 -7.500000000000E-01	  8.000000000000E+00	  0.000000000000E+00	  0.000000000000E+00	  0.000000000000E+00	  0.000000000000E+00	  0.000000000000E+00	  8.000000000000E+00	  0.000000000000E+00	  4.576443731785E-01	  8.613351583481E-01	  5.605492368340E-02	  4.210069375000E+05	  0.000000000000E+00	  0.000000000000E+00	  1.726121625000E+06	  0.000000000000E+00	  0.000000000000E+00	  1.789514375000E+06
       0.959473	  9.899998664856E+00	  8.164213180542E+00	 -7.500000000000E-01	  8.000000000000E+00	  0.000000000000E+00	  0.000000000000E+00	  0.000000000000E+00	  0.000000000000E+00	  0.000000000000E+00	  8.000000000000E+00	  0.000000000000E+00	  4.576443731785E-01	  8.613351583481E-01	  5.605492368340E-02	  4.210069375000E+05	  0.000000000000E+00	  0.000000000000E+00	  1.726121625000E+06	  0.000000000000E+00	  0.000000000000E+00	  1.789514375000E+06
       0.979462	  9.899998664856E+00	  8.164213180542E+00	 -7.500000000000E-01	  8.000000000000E+00	  0.000000000000E+00	  0.000000000000E+00	  0.000000000000E+00	  0.000000000000E+00	  0.000000000000E+00	  8.000000000000E+00	  0.000000000000E+00	  4.576443731785E-01	  8.613351583481E-01	  5.605492368340E-02	  4.210069375000E+05	  0.000000000000E+00	  0.000000000000E+00	  1.726121625000E+06	  0.000000000000E+00	  0.000000000000E+00	  1.789514375000E+06
       0.999451	  9.899998664856E+00	  8.164213180542E+00	 -7.500000000000E-01	  8.000000000000E+00	  0.000000000000E+00	  0.000000000000E+00	  0.000000000000E+00	  0.000000000000E+00	  0.000000000000E+00	  8.000000000000E+00	  0.000000000000E+00	  4.576443731785E-01	  8.613351583481E-01	  5.605492368340E-02	  4.210069375000E+05	  0.000000000000E+00	  0.000000000000E+00	  1.726121625000E+06	  0.000000000000E+00	  0.000000000000E+00	  1.789514375000E+06
       1.019440	  9.899998664856E+00	  8.164213180542E+00	 -7.500000000000E-01	  8.000000000000E+00	  0.000000000000E+00	  0.000000000000E+00	  0.000000000000E+00	  0.000000000000E+00	  0.000000000000E+00	  8.000000000000E+00	  0.000000000000E+00	  4.576443731785E-01	  8.613351583481E-01	  5.605492368340E-02	  4.210069375000E+05	  0.000000000000E+00	  0.000000000000E+00	  1.726121625000E+06	  0.000000000000E+00	  0.000000000000E+00	  1.789514375000E+06
       1.039429	  9.899998664856E+00	  8.164213180542E+00	 -7.500000000000E-01	  8.000000000000E+00	  0.000000000000E+00	  0.000000000000E+00	  0.000000000000E+00	  0.000000000000E+00	  0.000000000000E+00	  8.000000000000E+00	  0.000000000000E+00	  4.576443731785E-01	  8.613351583481E-01	  5.605492368340E-02	  4.210069375000E+05	  0.000000000000E+00	  0.000000000000E+00	  1.726121625000E+06	  0.000000000000E+00	  0.000000000000E+00	  1.789514375000E+06
       1.059418	  9.899998664856E+00	  8.164213180542E+00	 -7.500000000000E-01	  8.000000000000E+00	  0.000000000000E+00	  0.000000000000E+00	  0.000000000000E+00	  0.000000000000E+00	  0.000000000000E+00	  8.000000000000E+00	  0.000000000000E+00	  4.576443731785E-01	  8.613351583481E-01	  5.605492368340E-02	  4.210069375000E+05	  0.000000000000E+00	  0.000000000000E+00	  1.726121625000E+06	  0.000000000000E+00	  0.000000000000E+00	  1.789514375000E+06
       1.079407	  9.899998664856E+00	  8.164213180542E+00	 -7.500000000000E-01	  8.000000000000E+00	  0.000000000000E+00	  0.000000000000E+00	  0.000000000000E+00	  0.000000000000E+00	  0.000000000000E+00	  8.000000000000E+00	  0.000000000000E+00	  4.576443731785E-01	  8.613351583481E-01	  5.605492368340E-02	  4.210069375000E+05	  0.000000000000E+00	  0.000000000000E+00	  1.726121625000E+06	  0.000000000000E+00	  0.000000000000E+00	  1.789514375000E+06
       1.099396	  9.899998664856E+00	  8.164213180542E+00	 -7.500000000000E-01	  8.000000000000E+00	  0.000000000000E+00	  0.000000000000E+00	  0.000000000000E+00	  0.000000000000E+00	  0.000000000000E+00	  8.000000000000E+00	  0.000000000000E+00	  4.576443731785E-01	  8.613351583481E-01	  5.605492368340E-02	  4.210069375000E+05	  0.000000000000E+00	  0.000000000000E+00	  1.726121625000E+06	  0.000000000000E+00	  0.000000000000E+00	  1.789514375000E+06
       1.119385	  9.899998664856E+00	  8.164213180542E+00	 -7.500000000000E-01	  8.000000000000E+00	  0.000000000000E+00	  0.000000000000E+00	  0.000000000000E+00	  0.000000000000E+00	  0.000000000000E+00	  8.000000000000E+00	  0.000000000000E+00	  4.576443731785E-01	  8.613351583481E-01	  5.605492368340E-02	  4.210069375000E+05	  0.000000000000E+00	  0.000000000000E+00	  1.726121625000E+06	  0.000000000000E+00	  0.000000000000E+00	  1.789514375000E+06
       1.139374	  9.899998664856E+00	  8.164213180542E+00	 -7.500000000000E-01	  8.000000000000E+00	  0.000000000000E+00	  0.000000000000E+00	  0.000000000000E+00	  0.000000000000E+00	  0.000000000000E+00	  8.000000000000E+00	  0.000000000000E+00	  4.576443731785E-01	  8.613351583481E-01	  5.605492368340E-02	  4.210069375000E+05	  0.000000000000E+00	  0.000000000000E+00	  1.726121625000E+06	  0.000000000000E+00	  0.000000000000E+00	  1.789514375000E+06
       1.159363	  9.899998664856E+00	  8.164213180542E+00	 -7.500000000000E-01	  8.000000000000E+00	  0.000000000000E+00	  0.000000000000E+00	  0.000000000000E+00	  0.000000000000E+00	  0.000000000000E+00	  8.000000000000E+00	  0.000000000000E+00	  4.576443731785E-01	  8.613351583481E-01	  5.605492368340E-02	  4.210069375000E+05	  0.000000000000E+00	  0.000000000000E+00	  1.726121625000E+06	  0.000000000000E+00	  0.000000000000E+00	  1.789514375000E+06
       1.179352	  9.899998664856E+00	  8.164213180542E+00	 -7.500000000000E-01	  8.000000000000E+00	  0.000000000000E+00	  0.000000000000E+00	  0.000000000000E+00	  0.000000000000E+00	  0.000000000000E+00	  8.000000000000E+00	  0.000000000000E+00	  4.576443731785E-01	  8.613351583481E-01	  5.605492368340E-02	  4.210069375000E+05	  0.000000000000E+00	  0.000000000000E+00	  1.726121625000E+06	  0.000000000000E+00	  0.000000000000E+00	  1.789514375000E+06
       1.199341	  9.899998664856E+00	  8.164213180542E+00	 -7.500000000000E-01	  8.000000000000E+00	  0.000000000000E+00	  0.000000000000E+00	  0.000000000000E+00	  0.000000000000E+00	  0.000000000000E+00	  8.000000000000E+00	  0.000000000000E+00	  4.576443731785E-01	  8.613351583481E-01	  5.605492368340E-02	  4.210069375000E+05	  0.000000000000E+00	  0.000000000000E+00	  1.726121625000E+06	  0.000000000000E+00	  0.000000000000E+00	  1.789514375000E+06
       1.219330	  9.899998664856E+00	  8.164213180542E+00	 -7.500000000000E-01	  8.000000000000E+00	  0.000000000000E+00	  0.000000000000E+00	  0.000000000000E+00	  0.000000000000E+00	  0.000000000000E+00	  8.000000000000E+00	  0.000000000000E+00	  4.576443731785E-01	  8.613351583481E-01	  5.605492368340E-02	  4.210069375000E+05	  0.000000000000E+00	  0.000000000000E+00	  1.726121625000E+06	  0.000000000000E+00	  0.000000000000E+00	  1.789514375000E+06
       1.239319	  9.899998664856E+00	  8.164213180542E+00	 -7.500000000000E-01	  8.000000000000E+00	  0.000000000000E+00	  0.000000000000E+00	  0.000000000000E+00	  0.000000000000E+00	  0.000000000000E+00	  8.000000000000E+00	  0.000000000000E+00	  4.576443731785E-01	  8.613351583481E-01	  5.605492368340E-02	  4.210069375000E+05	  0.000000000000E+00	  0.000000000000E+00	  1.726121625000E+06	  0.000000000000E+00	  0.000000000000E+00	  1.789514375000E+06
       1.259308	  9.899998664856E+00	  8.164213180542E+00	 -7.500000000000E-01	  8.000000000000E+00	  0.000000000000E+00	  0.000000000000E+00	  0.000000000000E+00	  0.000000000000E+00	  0.000000000000E+00	  8.000000000000E+00	  0.000000000000E+00	  4.576443731785E-01	  8.613351583481E-01	  5.605492368340E-02	  4.210069375000E+05	  0.000000000000E+00	  0.000000000000E+00	  1.726121625000E+06	  0.000000000000E+00	  0.000000000000E+00	  1.789514375000E+06