
Predictions were generated on 19-Jun-2024 at 13:54:35 using HydroDyn Driver, compiled on Jun 19 2024 at 12:41:58 as a 64-bit application using double precision at commit v3.5.3-1370-g042b249a-dirty
 linked with  NWTC Subroutine Library

Description from the driver input file: NREL 5.0 MW offshore baseline floating platform HydroDyn input properties for the OC3 Hywind.

Time	Wave1Elev	HydroFxi	HydroFyi	HydroFzi	HydroMxi	HydroMyi	HydroMzi	B1Surge	B1Sway	B1Heave	B1Roll	B1Pitch	B1Yaw	B1TVxi	B1TVyi	B1TVzi	B1RVxi	B1RVyi	B1RVzi	B1TAxi	B1TAyi	B1TAzi	B1RAxi	B1RAyi	B1RAzi	B1WvsFxi	B1WvsFyi	B1WvsFzi	B1WvsMxi	B1WvsMyi	B1WvsMzi	B1HDSFxi	B1HDSFyi	B1HDSFzi	B1HDSMxi	B1HDSMyi	B1HDSMzi	B1RdtFxi	B1RdtFyi	B1RdtFzi	B1RdtMxi	B1RdtMyi	B1RdtMzi
(s)	(m)	(N)	(N)	(N)	(N-m)	(N-m)	(N-m)	(m)	(m)	(m)	(rad)	(rad)	(rad)	(m/s)	(m/s)	(m/s)	(rad/s)	(rad/s)	(rad/s)	(m/s^2)	(m/s^2)	(m/s^2)	(rad/s^2)	(rad/s^2)	(rad/s^2)	(N)	(N)	(N)	(N-m)	(N-m)	(N-m)	(N)	(N)	(N)	(N-m)	(N-m)	(N-m)	(N)	(N)	(N)	(N-m)	(N-m)	(N-m)
    0.0000	  -5.621928E-02	  -3.515387E+06	   2.134696E+03	   8.072125E+07	   4.010051E+04	   1.170014E+08	   2.551026E-21	   0.000000E+00	   0.000000E+00	   0.000000E+00	   0.000000E+00	   0.000000E+00	   0.000000E+00	   0.000000E+00	   0.000000E+00	   0.000000E+00	   0.000000E+00	   0.000000E+00	   0.000000E+00	   1.083502E+00	  -1.011211E-03	   7.264068E-02	   1.182139E-05	   1.128366E-02	  -9.818152E-16	  -5.598316E+05	   0.000000E+00	   3.095671E+04	   0.000000E+00	   2.157090E+07	   0.000000E+00	   0.000000E+00	   0.000000E+00	   8.070814E+07	   0.000000E+00	   0.000000E+00	   0.000000E+00	  -2.955423E+06	   2.134696E+03	  -1.752492E+04	   4.010051E+04	   9.542751E+07	   2.551026E-21
    0.0125	  -5.351759E-02	  -3.533382E+06	   7.083048E+03	   8.072211E+07	   1.317863E+05	   1.174918E+08	   2.386607E-05	   8.456044E-05	  -2.653158E-07	   5.681249E-06	   2.891215E-09	   8.805926E-07	  -3.840416E-16	   1.351642E-02	  -6.062287E-05	   9.094556E-04	   6.544772E-07	   1.407532E-04	  -1.006259E-12	   1.088517E+00	  -3.361551E-03	   7.192519E-02	   3.933822E-05	   1.133393E-02	   4.246612E-05	  -5.617538E+05	   0.000000E+00	   3.177345E+04	   0.000000E+00	   2.153913E+07	   0.000000E+00	   0.000000E+00	   0.000000E+00	   8.070814E+07	   1.445372E+01	   4.402245E+03	   0.000000E+00	  -2.970038E+06	   7.076726E+03	  -1.735230E+04	   1.317660E+05	   9.594278E+07	  -1.103387E-10
    0.0250	  -5.081591E-02	  -3.545980E+06	   1.501068E+04	   8.072301E+07	   2.803679E+05	   1.179099E+08	  -1.078619E+01	   3.384571E-04	  -1.467541E-06	   2.264699E-05	   1.613440E-08	   3.524333E-06	   4.423635E-09	   2.709371E-02	  -1.473500E-04	   1.803258E-03	   1.634755E-06	   2.820963E-04	   7.962504E-07	   1.090781E+00	  -7.114416E-03	   7.106396E-02	   8.321890E-05	   1.135136E-02	   1.455981E-04	  -5.636759E+05	   0.000000E+00	   3.259019E+04	   0.000000E+00	   2.150735E+07	   0.000000E+00	   0.000000E+00	   0.000000E+00	   8.070814E+07	   8.065874E+01	   1.761879E+04	   0.000000E+00	  -2.979223E+06	   1.499519E+04	  -1.714456E+04	   2.802696E+05	   9.637609E+07	  -3.783039E-10
    0.0375	  -4.811423E-02	  -3.553004E+06	   2.362371E+04	   8.072393E+07	   4.456093E+05	   1.182518E+08	  -4.518710E+01	   7.622041E-04	  -4.006253E-06	   5.071580E-05	   4.466660E-08	   7.935672E-06	   2.843767E-08	   4.068995E-02	  -2.682619E-04	   2.685803E-03	   3.038209E-06	   4.235346E-04	   3.260833E-06	   1.090201E+00	  -1.116006E-02	   7.010078E-02	   1.303915E-04	   1.133483E-02	   2.513141E-04	  -5.655981E+05	   0.000000E+00	   3.340694E+04	   0.000000E+00	   2.147557E+07	   0.000000E+00	   0.000000E+00	   0.000000E+00	   8.070813E+07	   2.232954E+02	   3.967189E+04	   0.000000E+00	  -2.982803E+06	   2.359527E+04	  -1.691231E+04	   4.453481E+05	   9.672340E+07	  -6.529833E-10
    0.0500	  -4.541254E-02	  -3.555621E+06	   3.020289E+04	   8.072488E+07	   5.798959E+05	   1.185373E+08	  -1.007384E+02	   1.355873E-03	  -8.321455E-06	   8.973917E-05	   9.387315E-08	   1.411371E-05	   9.052790E-08	   5.427160E-02	  -4.138011E-04	   3.555445E-03	   4.757984E-06	   5.646635E-04	   7.064356E-06	   1.087345E+00	  -1.418360E-02	   6.902434E-02	   1.653658E-04	   1.129106E-02	   2.759999E-04	  -5.675203E+05	   0.000000E+00	   3.422368E+04	   0.000000E+00	   2.144380E+07	   0.000000E+00	   0.000000E+00	   0.000000E+00	   8.070811E+07	   4.692828E+02	   7.055706E+04	   0.000000E+00	  -2.981945E+06	   3.015864E+04	  -1.665280E+04	   5.793591E+05	   9.700470E+07	  -7.171238E-10
    0.0625	  -4.271085E-02	  -3.554996E+06	   3.194478E+04	   8.072585E+07	   6.340247E+05	   1.187863E+08	  -1.576672E+02	   2.119066E-03	  -1.460001E-05	   1.395442E-04	   1.662769E-07	   2.205215E-05	   1.985532E-07	   6.781384E-02	  -5.672064E-04	   4.410864E-03	   6.588583E-06	   7.051870E-04	   1.062640E-05	   1.082781E+00	  -1.483067E-02	   6.782102E-02	   1.721906E-04	   1.122678E-02	   1.408229E-04	  -5.694425E+05	   0.000000E+00	   3.504043E+04	   0.000000E+00	   2.141202E+07	   0.000000E+00	   0.000000E+00	   0.000000E+00	   8.070810E+07	   8.312269E+02	   1.102428E+05	   0.000000E+00	  -2.977818E+06	   3.188358E+04	  -1.636276E+04	   6.330886E+05	   9.723978E+07	  -3.658966E-10
    0.0750	  -4.000916E-02	  -3.552452E+06	   2.647884E+04	   8.072686E+07	   5.663086E+05	   1.190212E+08	  -1.819464E+02	   3.051160E-03	  -2.273404E-05	   1.999444E-04	   2.608064E-07	   3.174182E-05	   3.354805E-07	   8.129838E-02	  -6.924061E-04	   5.250393E-03	   8.100709E-06	   8.448854E-04	   1.145837E-05	   1.077158E+00	  -1.195804E-02	   6.649108E-02	   1.374046E-04	   1.114964E-02	  -1.896879E-04	  -5.713647E+05	   0.000000E+00	   3.585717E+04	   0.000000E+00	   2.138024E+07	   0.000000E+00	   0.000000E+00	   0.000000E+00	   8.070808E+07	   1.303766E+03	   1.586832E+05	   0.000000E+00	  -2.971742E+06	   2.640339E+04	  -1.604224E+04	   5.648615E+05	   9.745109E+07	   4.928614E-10
    0.0875	  -3.730748E-02	  -3.549248E+06	   1.217927E+04	   8.072789E+07	   3.477389E+05	   1.192627E+08	  -1.344189E+02	   4.151368E-03	  -3.207551E-05	   2.707317E-04	   3.699869E-07	   4.317163E-05	   4.522444E-07	   9.471598E-02	  -7.460186E-04	   6.072491E-03	   8.772482E-06	   9.836456E-04	   6.919397E-06	   1.071092E+00	  -4.786116E-03	   6.501976E-02	   5.184246E-05	   1.106695E-02	  -7.120639E-04	  -5.732869E+05	   0.000000E+00	   3.667391E+04	   0.000000E+00	   2.134847E+07	   0.000000E+00	   0.000000E+00	   0.000000E+00	   8.070806E+07	   1.849535E+03	   2.158229E+05	   0.000000E+00	  -2.964978E+06	   1.209717E+04	  -1.568769E+04	   3.457185E+05	   9.765947E+07	   1.850138E-09
    0.1000	  -3.460579E-02	  -3.545789E+06	  -1.148947E+04	   8.072896E+07	  -3.189632E+04	   1.195166E+08	   2.357757E+01	   5.418831E-03	  -4.139545E-05	   3.516762E-04	   4.793511E-07	   5.632958E-05	   4.672151E-07	   1.080634E-01	  -6.781432E-04	   6.875259E-03	   8.004509E-06	   1.121427E-03	  -5.346947E-06	   1.064791E+00	   6.934569E-03	   6.340061E-02	  -8.740612E-05	   1.098119E-02	  -1.367802E-03	  -5.752091E+05	   0.000000E+00	   3.749066E+04	   0.000000E+00	   2.131669E+07	   0.000000E+00	   0.000000E+00	   0.000000E+00	   8.070802E+07	   2.396233E+03	   2.816020E+05	   0.000000E+00	  -2.957931E+06	  -1.156484E+04	  -1.529754E+04	  -3.446292E+04	   9.787074E+07	   3.553927E-09
    0.1125	  -3.190411E-02	  -3.542694E+06	  -4.386818E+04	   8.073006E+07	  -5.623254E+05	   1.197925E+08	   3.188695E+02	   6.852647E-03	  -4.883668E-05	   4.425248E-04	   5.668878E-07	   7.120309E-05	   2.758628E-07	   1.213366E-01	  -4.413744E-04	   7.656862E-03	   5.224594E-06	   1.258182E-03	  -2.661339E-05	   1.058563E+00	   2.287222E-02	   6.164549E-02	  -2.763897E-04	   1.089605E-02	  -2.067744E-03	  -5.771312E+05	   0.000000E+00	   3.830740E+04	   0.000000E+00	   2.128491E+07	   0.000000E+00	   0.000000E+00	   0.000000E+00	   8.070800E+07	   2.833878E+03	   3.559574E+05	   0.000000E+00	  -2.951220E+06	  -4.391771E+04	  -1.487465E+04	  -5.652799E+05	   9.809465E+07	   5.372567E-09
    0.1250	  -2.920242E-02	  -3.540805E+06	  -8.311579E+04	   8.073120E+07	  -1.212994E+06	   1.201044E+08	   7.623699E+02	   8.451907E-03	  -5.199319E-05	   5.430034E-04	   6.039456E-07	   8.777955E-05	  -2.355056E-07	   1.345390E-01	   4.751763E-06	   8.415682E-03	  -5.604401E-08	   1.393946E-03	  -5.685919E-05	   1.052824E+00	   4.212048E-02	   5.975761E-02	  -5.043754E-04	   1.081644E-02	  -2.712237E-03	  -5.790534E+05	   0.000000E+00	   3.912414E+04	   0.000000E+00	   2.125314E+07	   0.000000E+00	   0.000000E+00	   0.000000E+00	   8.070797E+07	   3.019339E+03	   4.388262E+05	   0.000000E+00	  -2.945687E+06	  -8.311524E+04	  -1.441981E+04	  -1.216012E+06	   9.834503E+07	   7.047139E-09
    0.1375	  -2.650074E-02	  -3.540868E+06	  -1.263512E+05	   8.073237E+07	  -1.935406E+06	   1.204644E+08	   1.347282E+03	   1.021578E-02	  -4.803486E-05	   6.528162E-04	   5.567304E-07	   1.060472E-04	  -1.172448E-06	   1.476775E-01	   6.869789E-04	   9.150110E-03	  -8.162363E-06	   1.528801E-03	  -9.476279E-05	   1.047940E+00	   6.326863E-02	   5.774008E-02	  -7.546801E-04	   1.074671E-02	  -3.218233E-03	  -5.809756E+05	   0.000000E+00	   3.994088E+04	   0.000000E+00	   2.122136E+07	   0.000000E+00	   0.000000E+00	   0.000000E+00	   8.070793E+07	   2.783820E+03	   5.301494E+05	   0.000000E+00	  -2.942079E+06	  -1.262726E+05	  -1.393375E+04	  -1.937971E+06	   9.863434E+07	   8.361857E-09
    0.1500	  -2.379905E-02	  -3.543122E+06	  -1.700516E+05	   8.073356E+07	  -2.670043E+06	   1.208758E+08	   2.052668E+03	   1.214353E-02	  -3.391656E-05	   7.716484E-04	   3.887949E-07	   1.259954E-04	  -2.618404E-06	   1.607625E-01	   1.614128E-03	   9.858570E-03	  -1.920401E-05	   1.662870E-03	  -1.380823E-04	   1.044034E+00	   8.459502E-02	   5.561105E-02	  -1.006952E-03	   1.068831E-02	  -3.535672E-03	  -5.828978E+05	   0.000000E+00	   4.075763E+04	   0.000000E+00	   2.118958E+07	   0.000000E+00	   0.000000E+00	   0.000000E+00	   8.070789E+07	   1.945307E+03	   6.298743E+05	   0.000000E+00	  -2.940632E+06	  -1.698652E+05	  -1.342085E+04	  -2.671438E+06	   9.896578E+07	   9.186651E-09
    0.1625	  -2.109737E-02	  -3.547723E+06	  -2.104280E+05	   8.073478E+07	  -3.352711E+06	   1.213411E+08	   2.849194E+03	   1.423457E-02	  -6.615676E-06	   8.991678E-04	   6.389308E-08	   1.476152E-04	  -4.625748E-06	   1.738034E-01	   2.775338E-03	   1.053979E-02	  -3.305352E-05	   1.796266E-03	  -1.841648E-04	   1.041181E+00	   1.042506E-01	   5.337135E-02	  -1.239339E-03	   1.064219E-02	  -3.660036E-03	  -5.848200E+05	   0.000000E+00	   4.157437E+04	   0.000000E+00	   2.115781E+07	   0.000000E+00	   0.000000E+00	   0.000000E+00	   8.070785E+07	   3.228269E+02	   7.379557E+05	   0.000000E+00	  -2.941502E+06	  -2.101045E+05	  -1.288131E+04	  -3.352024E+06	   9.934182E+07	   9.509782E-09
    0.1750	  -1.839568E-02	  -3.553222E+06	  -2.438756E+05	   8.073602E+07	  -3.922245E+06	   1.218334E+08	   3.707401E+03	   1.648841E-02	   3.661522E-05	   1.035024E-03	  -4.509755E-07	   1.708992E-04	  -7.214613E-06	   1.868121E-01	   4.139513E-03	   1.119240E-02	  -4.933999E-05	   1.929128E-03	  -2.305919E-04	   1.038693E+00	   1.204783E-01	   5.105397E-02	  -1.431082E-03	   1.060023E-02	  -3.620906E-03	  -5.867422E+05	   0.000000E+00	   4.239111E+04	   0.000000E+00	   2.112603E+07	   0.000000E+00	   0.000000E+00	   0.000000E+00	   8.070780E+07	  -2.248346E+03	   8.543564E+05	   0.000000E+00	  -2.943238E+06	  -2.433887E+05	  -1.232309E+04	  -3.918397E+06	   9.973582E+07	   9.408113E-09
    0.1875	  -1.569400E-02	  -3.559626E+06	  -2.673640E+05	   8.073728E+07	  -4.326913E+06	   1.223532E+08	   4.602617E+03	   1.890465E-02	   9.800876E-05	   1.178856E-03	  -1.182682E-06	   1.958404E-04	  -1.037753E-05	   1.997850E-01	   5.658092E-03	   1.181574E-02	  -6.748157E-05	   2.061418E-03	  -2.755225E-04	   1.036572E+00	   1.318051E-01	   4.868373E-02	  -1.564787E-03	   1.056247E-02	  -3.484196E-03	  -5.886644E+05	   0.000000E+00	   4.320786E+04	   0.000000E+00	   2.109425E+07	   0.000000E+00	   0.000000E+00	   0.000000E+00	   8.070775E+07	  -5.902287E+03	   9.790422E+05	   0.000000E+00	  -2.945850E+06	  -2.666924E+05	  -1.175217E+04	  -4.318695E+06	   1.001481E+08	   9.052905E-09
    0.2000	  -1.299231E-02	  -3.565972E+06	  -2.788451E+05	   8.073854E+07	  -4.531674E+06	   1.228831E+08	   5.522208E+03	   2.148290E-02	   1.790909E-04	   1.330294E-03	  -2.149644E-06	   2.224324E-04	  -1.409039E-05	   2.127303E-01	   7.269162E-03	   1.240923E-02	  -8.673502E-05	   2.193227E-03	  -3.181675E-04	   1.034353E+00	   1.372378E-01	   4.628560E-02	  -1.628731E-03	   1.052346E-02	  -3.331090E-03	  -5.905866E+05	   0.000000E+00	   4.402460E+04	   0.000000E+00	   2.106248E+07	   0.000000E+00	   0.000000E+00	   0.000000E+00	   8.070770E+07	  -1.073080E+04	   1.111981E+06	   0.000000E+00	  -2.948370E+06	  -2.779742E+05	  -1.117458E+04	  -4.517802E+06	   1.005613E+08	   8.655094E-09
    0.2125	  -1.029062E-02	  -3.572220E+06	  -2.774550E+05	   8.073981E+07	  -4.521528E+06	   1.234228E+08	   6.467458E+03	   2.422277E-02	   2.805556E-04	   1.488963E-03	  -3.360297E-06	   2.506687E-04	  -1.832527E-05	   2.256398E-01	   8.903673E-03	   1.297270E-02	  -1.062703E-04	   2.324460E-03	  -3.588373E-04	   1.032018E+00	   1.363625E-01	   4.387267E-02	  -1.618038E-03	   1.048297E-02	  -3.244633E-03	  -5.925088E+05	   0.000000E+00	   4.484135E+04	   0.000000E+00	   2.103070E+07	   0.000000E+00	   0.000000E+00	   0.000000E+00	   8.070765E+07	  -1.677578E+04	   1.253140E+06	   0.000000E+00	  -2.950764E+06	  -2.763785E+05	  -1.059347E+04	  -4.500700E+06	   1.009752E+08	   8.430457E-09
    0.2250	  -7.588938E-03	  -3.577369E+06	  -2.636191E+05	   8.074108E+07	  -4.303336E+06	   1.239542E+08	   7.454225E+03	   2.712382E-02	   4.022189E-04	   1.654486E-03	  -4.812528E-06	   2.805422E-04	  -2.306465E-05	   2.385151E-01	   1.049174E-02	   1.350597E-02	  -1.252467E-04	   2.455134E-03	  -3.988853E-04	   1.029084E+00	   1.293942E-01	   4.146094E-02	  -1.535267E-03	   1.043530E-02	  -3.283191E-03	  -5.944309E+05	   0.000000E+00	   4.565809E+04	   0.000000E+00	   2.099892E+07	   0.000000E+00	   0.000000E+00	   0.000000E+00	   8.070759E+07	  -2.402637E+04	   1.402483E+06	   0.000000E+00	  -2.952028E+06	  -2.623391E+05	  -1.001269E+04	  -4.274293E+06	   1.013719E+08	   8.530642E-09
    0.2375	  -4.887254E-03	  -3.580822E+06	  -2.391058E+05	   8.074234E+07	  -3.907260E+06	   1.244668E+08	   8.507658E+03	   3.018555E-02	   5.430563E-04	   1.826488E-03	  -6.494110E-06	   3.120450E-04	  -2.831128E-05	   2.513431E-01	   1.196992E-02	   1.400921E-02	  -1.429005E-04	   2.585093E-03	  -4.402265E-04	   1.025268E+00	   1.171993E-01	   3.906292E-02	  -1.390651E-03	   1.037714E-02	  -3.470084E-03	  -5.963531E+05	   0.000000E+00	   4.647483E+04	   0.000000E+00	   2.096715E+07	   0.000000E+00	   0.000000E+00	   0.000000E+00	   8.070754E+07	  -3.242109E+04	   1.559971E+06	   0.000000E+00	  -2.951568E+06	  -2.376323E+05	  -9.435265E+03	  -3.868838E+06	   1.017407E+08	   9.016246E-09
    0.2500	  -2.185567E-03	  -3.582088E+06	  -2.067120E+05	   8.074361E+07	  -3.381079E+06	   1.249515E+08	   9.656242E+03	   3.340729E-02	   7.013340E-04	   2.004593E-03	  -8.384256E-06	   3.451673E-04	  -3.409292E-05	   2.641150E-01	   1.328807E-02	   1.448262E-02	  -1.586266E-04	   2.714229E-03	  -4.848432E-04	   1.020334E+00	   1.011437E-01	   3.668726E-02	  -1.200324E-03	   1.030573E-02	  -3.780126E-03	  -5.982753E+05	   0.000000E+00	   4.729157E+04	   0.000000E+00	   2.093537E+07	   0.000000E+00	   0.000000E+00	   0.000000E+00	   8.070748E+07	  -4.185561E+04	   1.725556E+06	   0.000000E+00	  -2.948896E+06	  -2.050616E+05	  -8.863277E+03	  -3.332250E+06	   1.020727E+08	   9.821822E-09
    0.2625	  -4.294956E-03	  -3.574190E+06	  -1.700046E+05	   8.074486E+07	  -2.785971E+06	   1.252125E+08	   1.092243E+04	   3.678826E-02	   8.748028E-04	   2.188430E-03	  -1.045594E-05	   3.798978E-04	  -4.045864E-05	   2.768160E-01	   1.441328E-02	   1.492653E-02	  -1.720269E-04	   2.842366E-03	  -5.340929E-04	   1.012067E+00	   8.296511E-02	   3.428346E-02	  -9.848010E-04	   1.019753E-02	  -4.144416E-03	  -5.990441E+05	   0.000000E+00	   4.809139E+04	   0.000000E+00	   2.088587E+07	   0.000000E+00	   0.000000E+00	   0.000000E+00	   8.070742E+07	  -5.219436E+04	   1.899181E+06	   0.000000E+00	  -2.938183E+06	  -1.681987E+05	  -8.284538E+03	  -2.725874E+06	   1.021900E+08	   1.076835E-08
    0.2750	  -6.404343E-03	  -3.563922E+06	  -1.329222E+05	   8.074611E+07	  -2.189795E+06	   1.254414E+08	   1.231504E+04	   4.032720E-02	   1.060941E-03	   2.377627E-03	  -1.267883E-05	   4.162199E-04	  -4.746837E-05	   2.893926E-01	   1.533332E-02	   1.534027E-02	  -1.829515E-04	   2.968918E-03	  -5.882008E-04	   1.002607E+00	   6.457840E-02	   3.193241E-02	  -7.666742E-04	   1.007524E-02	  -4.467025E-03	  -5.998128E+05	   0.000000E+00	   4.889120E+04	   0.000000E+00	   2.083637E+07	   0.000000E+00	   0.000000E+00	   0.000000E+00	   8.070735E+07	  -6.328503E+04	   2.080763E+06	   0.000000E+00	  -2.925082E+06	  -1.309842E+05	  -7.718562E+03	  -2.117740E+06	   1.022663E+08	   1.160658E-08
    0.2875	  -8.513731E-03	  -3.551460E+06	  -9.935223E+04	   8.074735E+07	  -1.659815E+06	   1.256402E+08	   1.382470E+04	   4.402268E-02	   1.257221E-03	   2.571816E-03	  -1.502241E-05	   4.541151E-04	  -5.517704E-05	   3.018471E-01	   1.605694E-02	   1.572501E-02	  -1.915025E-04	   3.093892E-03	  -6.460329E-04	   9.920506E-01	   4.786985E-02	   2.963983E-02	  -5.681897E-04	   9.939992E-03	  -4.646251E-03	  -6.005815E+05	   0.000000E+00	   4.969102E+04	   0.000000E+00	   2.078687E+07	   0.000000E+00	   0.000000E+00	   0.000000E+00	   8.070729E+07	  -7.497453E+04	   2.270209E+06	   0.000000E+00	  -2.909774E+06	  -9.730533E+04	  -7.166726E+03	  -1.575274E+06	   1.023041E+08	   1.207226E-08
    0.3000	  -1.062312E-02	  -3.537309E+06	  -7.267234E+04	   8.074857E+07	  -1.254595E+06	   1.258169E+08	   1.542307E+04	   4.787296E-02	   1.461359E-03	   2.770636E-03	  -1.745910E-05	   4.935612E-04	  -6.361768E-05	   3.141681E-01	   1.661232E-02	   1.608151E-02	  -1.980157E-04	   3.217150E-03	  -7.051587E-04	   9.806490E-01	   3.447578E-02	   2.740717E-02	  -4.086394E-04	   9.794802E-03	  -4.599674E-03	  -6.013502E+05	   0.000000E+00	   5.049084E+04	   0.000000E+00	   2.073737E+07	   0.000000E+00	   0.000000E+00	   0.000000E+00	   8.070722E+07	  -8.712431E+04	   2.467409E+06	   0.000000E+00	  -2.892764E+06	  -7.053661E+04	  -6.629377E+03	  -1.157174E+06	   1.023113E+08	   1.195124E-08
    0.3125	  -1.273251E-02	  -3.522422E+06	  -5.536512E+04	   8.074978E+07	  -1.017285E+06	   1.259870E+08	   1.706660E+04	   5.187635E-02	   1.671538E-03	   2.973739E-03	  -1.996685E-05	   5.345365E-04	  -7.278738E-05	   3.263487E-01	   1.704313E-02	   1.641049E-02	  -2.030136E-04	   3.338612E-03	  -7.622508E-04	   9.688730E-01	   2.559645E-02	   2.525120E-02	  -3.021696E-04	   9.645247E-03	  -4.278997E-03	  -6.021189E+05	   0.000000E+00	   5.129064E+04	   0.000000E+00	   2.068787E+07	   0.000000E+00	   0.000000E+00	   0.000000E+00	   8.070715E+07	  -9.962348E+04	   2.672254E+06	   0.000000E+00	  -2.875006E+06	  -5.315558E+04	  -6.110559E+03	  -9.066861E+05	   1.023036E+08	   1.111804E-08
    0.3250	  -1.484189E-02	  -3.507910E+06	  -4.876823E+04	   8.075097E+07	  -9.711986E+05	   1.261689E+08	   1.870239E+04	   5.603110E-02	   1.886561E-03	   3.180788E-03	  -2.253104E-05	   5.770187E-04	  -8.263870E-05	   3.383893E-01	   1.740248E-02	   1.671304E-02	  -2.071330E-04	   3.458277E-03	  -8.135985E-04	   9.572701E-01	   2.187590E-02	   2.318238E-02	  -2.563665E-04	   9.497808E-03	  -3.687142E-03	  -6.028877E+05	   0.000000E+00	   5.209046E+04	   0.000000E+00	   2.063837E+07	   0.000000E+00	   0.000000E+00	   0.000000E+00	   8.070709E+07	  -1.123984E+05	   2.884632E+06	   0.000000E+00	  -2.857614E+06	  -4.649339E+04	  -5.612791E+03	  -8.471701E+05	   1.022995E+08	   9.580239E-09
    0.3375	  -1.695128E-02	  -3.494920E+06	  -5.281453E+04	   8.075214E+07	  -1.114835E+06	   1.263815E+08	   2.027793E+04	   6.033547E-02	   2.105929E-03	   3.391460E-03	  -2.514537E-05	   6.209853E-04	  -9.307967E-05	   3.502956E-01	   1.774693E-02	   1.699028E-02	  -2.110525E-04	   3.576216E-03	  -8.558562E-04	   9.464031E-01	   2.328003E-02	   2.119809E-02	  -2.708354E-04	   9.359153E-03	  -2.878021E-03	  -6.036564E+05	   0.000000E+00	   5.289027E+04	   0.000000E+00	   2.058887E+07	   0.000000E+00	   0.000000E+00	   0.000000E+00	   8.070702E+07	  -1.254174E+05	   3.104432E+06	   0.000000E+00	  -2.841733E+06	  -5.047566E+04	  -5.135439E+03	  -9.771244E+05	   1.023181E+08	   7.477923E-09
    0.3500	  -1.906067E-02	  -3.484524E+06	  -6.610481E+04	   8.075329E+07	  -1.423388E+06	   1.266427E+08	   2.175000E+04	   6.478786E-02	   2.329826E-03	   3.605445E-03	  -2.781178E-05	   6.664158E-04	  -1.039817E-04	   3.620799E-01	   1.812837E-02	   1.724323E-02	  -2.153959E-04	   3.692575E-03	  -8.866707E-04	   9.367983E-01	   2.913056E-02	   1.929296E-02	  -3.375930E-04	   9.235512E-03	  -1.949094E-03	  -6.044251E+05	   0.000000E+00	   5.369009E+04	   0.000000E+00	   2.053938E+07	   0.000000E+00	   0.000000E+00	   0.000000E+00	   8.070694E+07	  -1.386898E+05	   3.331550E+06	   0.000000E+00	  -2.828434E+06	  -6.369636E+04	  -4.677205E+03	  -1.271697E+06	   1.023772E+08	   5.064318E-09
    0.3625	  -2.117006E-02	  -3.477626E+06	  -8.603122E+04	   8.075442E+07	  -1.850890E+06	   1.269673E+08	   2.309264E+04	   6.938686E-02	   2.559018E-03	   3.822444E-03	  -3.053921E-05	   7.132917E-04	  -1.151954E-04	   3.737601E-01	   1.858715E-02	   1.747286E-02	  -2.206501E-04	   3.807568E-03	  -9.051747E-04	   9.288986E-01	   3.816535E-02	   1.745765E-02	  -4.417788E-04	   9.132127E-03	  -1.017134E-03	  -6.051939E+05	   0.000000E+00	   5.448991E+04	   0.000000E+00	   2.048988E+07	   0.000000E+00	   0.000000E+00	   0.000000E+00	   8.070687E+07	  -1.522604E+05	   3.565894E+06	   0.000000E+00	  -2.818618E+06	  -8.354211E+04	  -4.235833E+03	  -1.684847E+06	   1.024919E+08	   2.642835E-09
    0.3750	  -2.327945E-02	  -3.475144E+06	  -1.090004E+05	   8.075555E+07	  -2.334187E+06	   1.273713E+08	   2.430010E+04	   7.413131E-02	   2.794666E-03	   4.042173E-03	  -3.334138E-05	   7.615976E-04	  -1.265695E-04	   3.853583E-01	   1.914696E-02	   1.767997E-02	  -2.271026E-04	   3.921460E-03	  -9.120690E-04	   9.231483E-01	   4.864624E-02	   1.568866E-02	  -5.629234E-04	   9.054239E-03	  -1.901184E-04	  -6.059626E+05	   0.000000E+00	   5.528972E+04	   0.000000E+00	   2.044038E+07	   0.000000E+00	   0.000000E+00	   0.000000E+00	   8.070680E+07	  -1.661978E+05	   3.807388E+06	   0.000000E+00	  -2.813202E+06	  -1.064162E+05	  -3.810478E+03	  -2.153326E+06	   1.026781E+08	   4.940232E-10
    0.3875	  -2.538883E-02	  -3.477244E+06	  -1.309286E+05	   8.075666E+07	  -2.801968E+06	   1.278570E+08	   2.538488E+04	   7.902035E-02	   3.038084E-03	   4.264353E-03	  -3.623395E-05	   8.113218E-04	  -1.379692E-04	   3.969016E-01	   1.981013E-02	   1.786537E-02	  -2.347853E-04	   4.034577E-03	  -9.093341E-04	   9.196311E-01	   5.859590E-02	   1.397818E-02	  -6.777264E-04	   9.002852E-03	   4.549896E-04	  -6.067312E+05	   0.000000E+00	   5.608953E+04	   0.000000E+00	   2.039088E+07	   0.000000E+00	   0.000000E+00	   0.000000E+00	   8.070673E+07	  -1.805806E+05	   4.055972E+06	   0.000000E+00	  -2.812347E+06	  -1.282341E+05	  -3.399252E+03	  -2.605738E+06	   1.029382E+08	  -1.182141E-09
    0.4000	  -2.749822E-02	  -3.484039E+06	  -1.476094E+05	   8.075776E+07	  -3.181234E+06	   1.284262E+08	   2.637226E+04	   8.405347E-02	   3.290470E-03	   4.488719E-03	  -3.923116E-05	   8.624566E-04	  -1.492897E-04	   4.084151E-01	   2.055709E-02	   1.802976E-02	  -2.434672E-04	   4.147218E-03	  -8.997077E-04	   9.184001E-01	   6.597579E-02	   1.233482E-02	  -7.621514E-04	   8.978591E-03	   8.917230E-04	  -6.075000E+05	   0.000000E+00	   5.688935E+04	   0.000000E+00	   2.034138E+07	   0.000000E+00	   0.000000E+00	   0.000000E+00	   8.070665E+07	  -1.954801E+05	   4.311609E+06	   0.000000E+00	  -2.816162E+06	  -1.447917E+05	  -3.004233E+03	  -2.969020E+06	   1.032740E+08	  -2.316891E-09
    0.4125	  -2.960761E-02	  -3.495211E+06	  -1.552156E+05	   8.075884E+07	  -3.405970E+06	   1.290736E+08	   2.729096E+04	   8.923046E-02	   3.552618E-03	   4.715014E-03	  -4.234259E-05	   9.149982E-04	  -1.604607E-04	   4.199255E-01	   2.134641E-02	   1.817405E-02	  -2.526549E-04	   4.259704E-03	  -8.859331E-04	   9.192974E-01	   6.892968E-02	   1.076279E-02	  -7.942989E-04	   8.979589E-03	   1.138318E-03	  -6.082688E+05	   0.000000E+00	   5.768916E+04	   0.000000E+00	   2.029188E+07	   0.000000E+00	   0.000000E+00	   0.000000E+00	   8.070658E+07	  -2.109444E+05	   4.574278E+06	   0.000000E+00	  -2.824323E+06	  -1.522675E+05	  -2.626430E+03	  -3.177138E+06	   1.036802E+08	  -2.957610E-09
    0.4250	  -3.171699E-02	  -3.510014E+06	  -1.507606E+05	   8.075991E+07	  -3.425167E+06	   1.297862E+08	   2.816632E+04	   9.455146E-02	   3.824680E-03	   4.942991E-03	  -4.557008E-05	   9.689464E-04	  -1.714445E-04	   4.314549E-01	   2.211874E-02	   1.829915E-02	  -2.616385E-04	   4.372302E-03	  -8.702495E-04	   9.219607E-01	   6.600690E-02	   9.257924E-03	  -7.570375E-04	   9.001573E-03	   1.254039E-03	  -6.090375E+05	   0.000000E+00	   5.848898E+04	   0.000000E+00	   2.024238E+07	   0.000000E+00	   0.000000E+00	   0.000000E+00	   8.070650E+07	  -2.269828E+05	   4.843980E+06	   0.000000E+00	  -2.836082E+06	  -1.476826E+05	  -2.264838E+03	  -3.179118E+06	   1.041437E+08	  -3.258282E-09
    0.4375	  -3.382638E-02	  -3.527655E+06	  -1.324549E+05	   8.076096E+07	  -3.208708E+06	   1.305510E+08	   2.901292E+04	   1.000168E-01	   4.105969E-03	   5.172416E-03	  -4.890548E-05	   1.024304E-03	  -1.822254E-04	   4.430210E-01	   2.280231E-02	   1.840588E-02	  -2.695575E-04	   4.485226E-03	  -8.539018E-04	   9.259985E-01	   5.633756E-02	   7.831039E-03	  -6.400797E-04	   9.039901E-03	   1.317224E-03	  -6.098062E+05	   0.000000E+00	   5.928879E+04	   0.000000E+00	   2.019288E+07	   0.000000E+00	   0.000000E+00	   0.000000E+00	   8.070642E+07	  -2.435544E+05	   5.120730E+06	   0.000000E+00	  -2.850641E+06	  -1.292578E+05	  -1.922066E+03	  -2.944945E+06	   1.046515E+08	  -3.422452E-09
    0.4500	  -3.593577E-02	  -3.547068E+06	  -9.996791E+04	   8.076200E+07	  -2.751535E+06	   1.313502E+08	   2.983214E+04	   1.056271E-01	   4.394853E-03	   5.403066E-03	  -5.232932E-05	   1.081076E-03	  -1.927973E-04	   4.546369E-01	   2.332014E-02	   1.849528E-02	  -2.754874E-04	   4.598632E-03	  -8.370485E-04	   9.308879E-01	   3.976161E-02	   6.487692E-03	  -4.415159E-04	   9.088387E-03	   1.404391E-03	  -6.105749E+05	   0.000000E+00	   6.008861E+04	   0.000000E+00	   2.014338E+07	   0.000000E+00	   0.000000E+00	   0.000000E+00	   8.070634E+07	  -2.605620E+05	   5.404551E+06	   0.000000E+00	  -2.866934E+06	  -9.667357E+04	  -1.599451E+03	  -2.469734E+06	   1.051857E+08	  -3.648931E-09
    0.4625	  -3.804516E-02	  -3.567158E+06	  -5.450560E+04	   8.076301E+07	  -2.074601E+06	   1.321654E+08	   3.061284E+04	   1.113829E-01	   4.688750E-03	   5.634731E-03	  -5.581069E-05	   1.139270E-03	  -2.031504E-04	   4.663088E-01	   2.359857E-02	   1.856842E-02	  -2.785417E-04	   4.712596E-03	  -8.189146E-04	   9.360913E-01	   1.686915E-02	   5.232398E-03	  -1.683027E-04	   9.140665E-03	   1.571255E-03	  -6.113436E+05	   0.000000E+00	   6.088842E+04	   0.000000E+00	   2.009389E+07	   0.000000E+00	   0.000000E+00	   0.000000E+00	   8.070627E+07	  -2.778509E+05	   5.695478E+06	   0.000000E+00	  -2.883862E+06	  -5.114669E+04	  -1.298082E+03	  -1.774668E+06	   1.057280E+08	  -4.082489E-09
    0.4750	  -4.015454E-02	  -3.586816E+06	   1.271312E+03	   8.076401E+07	  -1.223189E+06	   1.329782E+08	   3.133534E+04	   1.172850E-01	   4.984219E-03	   5.867214E-03	  -5.930834E-05	   1.198892E-03	  -2.132618E-04	   4.780373E-01	   2.357516E-02	   1.862643E-02	  -2.779671E-04	   4.827125E-03	  -7.981689E-04	   9.410662E-01	  -1.103779E-02	   4.060637E-03	   1.641784E-04	   9.190318E-03	   1.840704E-03	  -6.121123E+05	   0.000000E+00	   6.168823E+04	   0.000000E+00	   2.004438E+07	   0.000000E+00	   0.000000E+00	   0.000000E+00	   8.070619E+07	  -2.952152E+05	   5.993548E+06	   0.000000E+00	  -2.900316E+06	   4.652435E+03	  -1.016865E+03	  -9.053072E+05	   1.062597E+08	  -4.782589E-09
    0.4875	  -4.226393E-02	  -3.605156E+06	   6.353796E+04	   8.076498E+07	  -2.616318E+05	   1.337739E+08	   3.197727E+04	   1.233341E-01	   5.277157E-03	   6.100332E-03	  -6.277300E-05	   1.259950E-03	  -2.230905E-04	   4.898160E-01	   2.320573E-02	   1.867031E-02	  -2.732293E-04	   4.942149E-03	  -7.734057E-04	   9.453789E-01	  -4.208490E-02	   2.964545E-03	   5.337612E-04	   9.232206E-03	   2.199508E-03	  -6.128811E+05	   0.000000E+00	   6.248805E+04	   0.000000E+00	   1.999489E+07	   0.000000E+00	   0.000000E+00	   0.000000E+00	   8.070611E+07	  -3.124086E+05	   6.298790E+06	   0.000000E+00	  -2.915413E+06	   6.689166E+04	  -7.539031E+02	   7.370530E+04	   1.067663E+08	  -5.714859E-09
    0.5000	  -4.437332E-02	  -3.620824E+06	   1.276693E+05	   8.076594E+07	   7.326021E+05	   1.345292E+08	   3.251982E+04	   1.295307E-01	   5.563060E-03	   6.333916E-03	  -6.615052E-05	   1.322448E-03	  -2.325804E-04	   5.016351E-01	   2.246972E-02	   1.870096E-02	  -2.640775E-04	   5.057546E-03	  -7.436119E-04	   9.483717E-01	  -7.400568E-02	   1.949529E-03	   9.136309E-04	   9.258571E-03	   2.617477E-03	  -6.136498E+05	   0.000000E+00	   6.328786E+04	   0.000000E+00	   1.994539E+07	   0.000000E+00	   0.000000E+00	   0.000000E+00	   8.070603E+07	  -3.291610E+05	   6.611236E+06	   0.000000E+00	  -2.927798E+06	   1.309419E+05	  -5.104981E+02	   1.084588E+06	   1.072243E+08	  -6.800857E-09