
Predictions were generated on 29-Sep-2025 at 15:43:54 using HydroDyn Driver, compiled on Sep 29 2025 at 14:49:13 as a 64-bit application using double precision at commit v4.1.2-165-g1d0ee6c2-dirty
 linked with  NWTC Subroutine Library

Description from the driver input file: NREL 5.0 MW offshore baseline floating platform HydroDyn input properties for the OC3 Hywind.

Time	Wave1Elev	HydroFxi	HydroFyi	HydroFzi	HydroMxi	HydroMyi	HydroMzi	B1Surge	B1Sway	B1Heave	B1Roll	B1Pitch	B1Yaw	B1TVxi	B1TVyi	B1TVzi	B1RVxi	B1RVyi	B1RVzi	B1TAxi	B1TAyi	B1TAzi	B1RAxi	B1RAyi	B1RAzi	B1WvsFxi	B1WvsFyi	B1WvsFzi	B1WvsMxi	B1WvsMyi	B1WvsMzi	B1HDSFxi	B1HDSFyi	B1HDSFzi	B1HDSMxi	B1HDSMyi	B1HDSMzi	B1RdtFxi	B1RdtFyi	B1RdtFzi	B1RdtMxi	B1RdtMyi	B1RdtMzi
(s)	(m)	(N)	(N)	(N)	(N-m)	(N-m)	(N-m)	(m)	(m)	(m)	(rad)	(rad)	(rad)	(m/s)	(m/s)	(m/s)	(rad/s)	(rad/s)	(rad/s)	(m/s^2)	(m/s^2)	(m/s^2)	(rad/s^2)	(rad/s^2)	(rad/s^2)	(N)	(N)	(N)	(N-m)	(N-m)	(N-m)	(N)	(N)	(N)	(N-m)	(N-m)	(N-m)	(N)	(N)	(N)	(N-m)	(N-m)	(N-m)
    0.0000	  -5.621923E-02	  -3.515382E+06	   2.134696E+03	   8.072125E+07	   4.010051E+04	   1.170011E+08	   2.551026E-21	   0.000000E+00	   0.000000E+00	   0.000000E+00	   0.000000E+00	   0.000000E+00	   0.000000E+00	   0.000000E+00	   0.000000E+00	   0.000000E+00	   0.000000E+00	   0.000000E+00	   0.000000E+00	   1.083502E+00	  -1.011211E-03	   7.264068E-02	   1.182139E-05	   1.128366E-02	  -9.818152E-16	  -5.598316E+05	   0.000000E+00	   3.095671E+04	   0.000000E+00	   2.157090E+07	   0.000000E+00	   0.000000E+00	   0.000000E+00	   8.070814E+07	   0.000000E+00	   0.000000E+00	   0.000000E+00	  -2.955418E+06	   2.134696E+03	  -1.752492E+04	   4.010051E+04	   9.542720E+07	   2.551026E-21
    0.0125	  -5.575502E-02	  -3.533643E+06	   7.083049E+03	   8.072211E+07	   1.317863E+05	   1.174999E+08	   1.418289E-05	   8.456044E-05	  -2.653158E-07	   5.681249E-06	   2.891215E-09	   8.805925E-07	  -3.840416E-16	   1.351642E-02	  -6.062287E-05	   9.094556E-04	   6.544772E-07	   1.407532E-04	  -4.299313E-13	   1.088517E+00	  -3.361551E-03	   7.192519E-02	   3.933822E-05	   1.133393E-02	   4.246625E-05	  -5.620063E+05	   0.000000E+00	   3.177245E+04	   0.000000E+00	   2.154687E+07	   0.000000E+00	   0.000000E+00	   0.000000E+00	   8.070814E+07	   1.445372E+01	   4.402244E+03	   0.000000E+00	  -2.970043E+06	   7.076726E+03	  -1.735230E+04	   1.317660E+05	   9.594311E+07	  -1.103390E-10
    0.0250	  -5.460426E-02	  -3.546492E+06	   1.501055E+04	   8.072301E+07	   2.803574E+05	   1.179245E+08	  -1.078629E+01	   3.384571E-04	  -1.467541E-06	   2.264699E-05	   1.613440E-08	   3.524333E-06	   4.423635E-09	   2.709371E-02	  -1.473500E-04	   1.803258E-03	   1.634757E-06	   2.820963E-04	   7.962562E-07	   1.090781E+00	  -7.114416E-03	   7.106396E-02	   8.321917E-05	   1.135136E-02	   1.455988E-04	  -5.641839E+05	   0.000000E+00	   3.258920E+04	   0.000000E+00	   2.152209E+07	   0.000000E+00	   0.000000E+00	   0.000000E+00	   8.070814E+07	   8.065876E+01	   1.761879E+04	   0.000000E+00	  -2.979220E+06	   1.499506E+04	  -1.714456E+04	   2.802591E+05	   9.637590E+07	  -3.783059E-10
    0.0375	  -5.284213E-02	  -3.553773E+06	   2.362287E+04	   8.072393E+07	   4.455431E+05	   1.182727E+08	  -4.518748E+01	   7.622041E-04	  -4.006253E-06	   5.071580E-05	   4.466660E-08	   7.935672E-06	   2.843767E-08	   4.068994E-02	  -2.682619E-04	   2.685802E-03	   3.038221E-06	   4.235346E-04	   3.260857E-06	   1.090201E+00	  -1.116006E-02	   7.010078E-02	   1.303932E-04	   1.133483E-02	   2.513165E-04	  -5.663598E+05	   0.000000E+00	   3.340681E+04	   0.000000E+00	   2.149655E+07	   0.000000E+00	   0.000000E+00	   0.000000E+00	   8.070813E+07	   2.232954E+02	   3.967189E+04	   0.000000E+00	  -2.982802E+06	   2.359443E+04	  -1.691231E+04	   4.452818E+05	   9.672332E+07	  -6.529895E-10
    0.0500	  -5.054379E-02	  -3.556632E+06	   3.020051E+04	   8.072488E+07	   5.797084E+05	   1.185635E+08	  -1.007394E+02	   1.355873E-03	  -8.321455E-06	   8.973917E-05	   9.387316E-08	   1.411371E-05	   9.052790E-08	   5.427160E-02	  -4.138011E-04	   3.555446E-03	   4.758035E-06	   5.646635E-04	   7.064423E-06	   1.087344E+00	  -1.418360E-02	   6.902434E-02	   1.653708E-04	   1.129106E-02	   2.760049E-04	  -5.685283E+05	   0.000000E+00	   3.422513E+04	   0.000000E+00	   2.147025E+07	   0.000000E+00	   0.000000E+00	   0.000000E+00	   8.070811E+07	   4.692828E+02	   7.055704E+04	   0.000000E+00	  -2.981940E+06	   3.015626E+04	  -1.665280E+04	   5.791715E+05	   9.700438E+07	  -7.171367E-10
    0.0625	  -4.778443E-02	  -3.556243E+06	   3.194014E+04	   8.072586E+07	   6.336591E+05	   1.188173E+08	  -1.576694E+02	   2.119066E-03	  -1.460001E-05	   1.395442E-04	   1.662769E-07	   2.205215E-05	   1.985532E-07	   6.781384E-02	  -5.672064E-04	   4.410864E-03	   6.588723E-06	   7.051870E-04	   1.062654E-05	   1.082781E+00	  -1.483067E-02	   6.782102E-02	   1.722003E-04	   1.122678E-02	   1.408313E-04	  -5.706851E+05	   0.000000E+00	   3.504400E+04	   0.000000E+00	   2.144315E+07	   0.000000E+00	   0.000000E+00	   0.000000E+00	   8.070810E+07	   8.312270E+02	   1.102428E+05	   0.000000E+00	  -2.977815E+06	   3.187893E+04	  -1.636276E+04	   6.327229E+05	   9.723963E+07	  -3.659185E-10
    0.0750	  -4.463920E-02	  -3.553917E+06	   2.647234E+04	   8.072686E+07	   5.657976E+05	   1.190561E+08	  -1.819501E+02	   3.051160E-03	  -2.273404E-05	   1.999444E-04	   2.608064E-07	   3.174182E-05	   3.354805E-07	   8.129838E-02	  -6.924061E-04	   5.250393E-03	   8.100993E-06	   8.448854E-04	   1.145862E-05	   1.077158E+00	  -1.195804E-02	   6.649108E-02	   1.374181E-04	   1.114964E-02	  -1.896767E-04	  -5.728251E+05	   0.000000E+00	   3.586327E+04	   0.000000E+00	   2.141527E+07	   0.000000E+00	   0.000000E+00	   0.000000E+00	   8.070808E+07	   1.303766E+03	   1.586832E+05	   0.000000E+00	  -2.971742E+06	   2.639688E+04	  -1.604224E+04	   5.643504E+05	   9.745098E+07	   4.928323E-10
    0.0875	  -4.118327E-02	  -3.550905E+06	   1.217357E+04	   8.072790E+07	   3.472909E+05	   1.193006E+08	  -1.344240E+02	   4.151368E-03	  -3.207551E-05	   2.707317E-04	   3.699869E-07	   4.317163E-05	   4.522444E-07	   9.471597E-02	  -7.460186E-04	   6.072491E-03	   8.772927E-06	   9.836456E-04	   6.919775E-06	   1.071092E+00	  -4.786116E-03	   6.501976E-02	   5.185428E-05	   1.106695E-02	  -7.120530E-04	  -5.749434E+05	   0.000000E+00	   3.668281E+04	   0.000000E+00	   2.138658E+07	   0.000000E+00	   0.000000E+00	   0.000000E+00	   8.070806E+07	   1.849535E+03	   2.158229E+05	   0.000000E+00	  -2.964975E+06	   1.209146E+04	  -1.568769E+04	   3.452704E+05	   9.765922E+07	   1.850110E-09
    0.1000	  -3.749183E-02	  -3.547618E+06	  -1.148905E+04	   8.072897E+07	  -3.186319E+04	   1.195570E+08	   2.357285E+01	   5.418832E-03	  -4.139545E-05	   3.516762E-04	   4.793511E-07	   5.632958E-05	   4.672151E-07	   1.080634E-01	  -6.781432E-04	   6.875259E-03	   8.005033E-06	   1.121427E-03	  -5.346496E-06	   1.064791E+00	   6.934569E-03	   6.340061E-02	  -8.740699E-05	   1.098119E-02	  -1.367798E-03	  -5.770351E+05	   0.000000E+00	   3.750245E+04	   0.000000E+00	   2.135708E+07	   0.000000E+00	   0.000000E+00	   0.000000E+00	   8.070802E+07	   2.396233E+03	   2.816020E+05	   0.000000E+00	  -2.957931E+06	  -1.156442E+04	  -1.529754E+04	  -3.442984E+04	   9.787076E+07	   3.553916E-09
    0.1125	  -3.364003E-02	  -3.544655E+06	  -4.385349E+04	   8.073008E+07	  -5.611710E+05	   1.198342E+08	   3.188691E+02	   6.852647E-03	  -4.883668E-05	   4.425248E-04	   5.668878E-07	   7.120309E-05	   2.758628E-07	   1.213366E-01	  -4.413744E-04	   7.656862E-03	   5.224941E-06	   1.258182E-03	  -2.661302E-05	   1.058563E+00	   2.287222E-02	   6.164548E-02	  -2.764202E-04	   1.089605E-02	  -2.067757E-03	  -5.790954E+05	   0.000000E+00	   3.832203E+04	   0.000000E+00	   2.132675E+07	   0.000000E+00	   0.000000E+00	   0.000000E+00	   8.070800E+07	   2.833878E+03	   3.559574E+05	   0.000000E+00	  -2.951216E+06	  -4.390302E+04	  -1.487465E+04	  -5.641256E+05	   9.809441E+07	   5.372602E-09
    0.1250	  -2.970305E-02	  -3.542874E+06	  -8.307629E+04	   8.073122E+07	  -1.209892E+06	   1.201472E+08	   7.623810E+02	   8.451907E-03	  -5.199319E-05	   5.430034E-04	   6.039456E-07	   8.777955E-05	  -2.355056E-07	   1.345390E-01	   4.751763E-06	   8.415682E-03	  -5.637230E-08	   1.393946E-03	  -5.685920E-05	   1.052825E+00	   4.212048E-02	   5.975761E-02	  -5.044572E-04	   1.081644E-02	  -2.712282E-03	  -5.811193E+05	   0.000000E+00	   3.914142E+04	   0.000000E+00	   2.129558E+07	   0.000000E+00	   0.000000E+00	   0.000000E+00	   8.070797E+07	   3.019339E+03	   4.388262E+05	   0.000000E+00	  -2.945692E+06	  -8.307574E+04	  -1.441981E+04	  -1.212910E+06	   9.834535E+07	   7.047255E-09
    0.1375	  -2.575606E-02	  -3.542991E+06	  -1.262751E+05	   8.073238E+07	  -1.929430E+06	   1.205066E+08	   1.347315E+03	   1.021578E-02	  -4.803486E-05	   6.528162E-04	   5.567304E-07	   1.060472E-04	  -1.172448E-06	   1.476775E-01	   6.869789E-04	   9.150110E-03	  -8.164156E-06	   1.528801E-03	  -9.476365E-05	   1.047940E+00	   6.326863E-02	   5.774008E-02	  -7.548376E-04	   1.074670E-02	  -3.218326E-03	  -5.831018E+05	   0.000000E+00	   3.996047E+04	   0.000000E+00	   2.126356E+07	   0.000000E+00	   0.000000E+00	   0.000000E+00	   8.070793E+07	   2.783820E+03	   5.301495E+05	   0.000000E+00	  -2.942078E+06	  -1.261965E+05	  -1.393375E+04	  -1.931995E+06	   9.863430E+07	   8.362097E-09
    0.1500	  -2.187422E-02	  -3.545267E+06	  -1.699271E+05	   8.073358E+07	  -2.660272E+06	   1.209175E+08	   2.052739E+03	   1.214353E-02	  -3.391656E-05	   7.716484E-04	   3.887949E-07	   1.259954E-04	  -2.618404E-06	   1.607625E-01	   1.614128E-03	   9.858570E-03	  -1.920837E-05	   1.662870E-03	  -1.380847E-04	   1.044034E+00	   8.459502E-02	   5.561105E-02	  -1.007209E-03	   1.068830E-02	  -3.535831E-03	  -5.850379E+05	   0.000000E+00	   4.077903E+04	   0.000000E+00	   2.123069E+07	   0.000000E+00	   0.000000E+00	   0.000000E+00	   8.070789E+07	   1.945307E+03	   6.298742E+05	   0.000000E+00	  -2.940640E+06	  -1.697408E+05	  -1.342085E+04	  -2.661667E+06	   9.896632E+07	   9.187064E-09
    0.1625	  -1.813271E-02	  -3.549827E+06	  -2.102439E+05	   8.073480E+07	  -3.338266E+06	   1.213807E+08	   2.849322E+03	   1.423457E-02	  -6.615676E-06	   8.991678E-04	   6.389308E-08	   1.476152E-04	  -4.625748E-06	   1.738034E-01	   2.775339E-03	   1.053979E-02	  -3.306183E-05	   1.796266E-03	  -1.841696E-04	   1.041181E+00	   1.042506E-01	   5.337136E-02	  -1.239720E-03	   1.064217E-02	  -3.660277E-03	  -5.869231E+05	   0.000000E+00	   4.159693E+04	   0.000000E+00	   2.119694E+07	   0.000000E+00	   0.000000E+00	   0.000000E+00	   8.070785E+07	   3.228269E+02	   7.379556E+05	   0.000000E+00	  -2.941507E+06	  -2.099205E+05	  -1.288131E+04	  -3.337580E+06	   9.934224E+07	   9.510411E-09
    0.1750	  -1.460670E-02	  -3.555238E+06	  -2.436232E+05	   8.073604E+07	  -3.902442E+06	   1.218705E+08	   3.707609E+03	   1.648841E-02	   3.661522E-05	   1.035024E-03	  -4.509755E-07	   1.708992E-04	  -7.214613E-06	   1.868121E-01	   4.139513E-03	   1.119240E-02	  -4.935390E-05	   1.929127E-03	  -2.306004E-04	   1.038693E+00	   1.204783E-01	   5.105397E-02	  -1.431604E-03	   1.060021E-02	  -3.621246E-03	  -5.887522E+05	   0.000000E+00	   4.241405E+04	   0.000000E+00	   2.116231E+07	   0.000000E+00	   0.000000E+00	   0.000000E+00	   8.070780E+07	  -2.248346E+03	   8.543566E+05	   0.000000E+00	  -2.943248E+06	  -2.431364E+05	  -1.232309E+04	  -3.898594E+06	   9.973653E+07	   9.408997E-09
    0.1875	  -1.137135E-02	  -3.561494E+06	  -2.670365E+05	   8.073730E+07	  -4.301197E+06	   1.223871E+08	   4.602928E+03	   1.890465E-02	   9.800876E-05	   1.178856E-03	  -1.182682E-06	   1.958404E-04	  -1.037753E-05	   1.997850E-01	   5.658092E-03	   1.181574E-02	  -6.750297E-05	   2.061418E-03	  -2.755357E-04	   1.036571E+00	   1.318051E-01	   4.868373E-02	  -1.565464E-03	   1.056243E-02	  -3.484642E-03	  -5.905204E+05	   0.000000E+00	   4.323020E+04	   0.000000E+00	   2.112678E+07	   0.000000E+00	   0.000000E+00	   0.000000E+00	   8.070775E+07	  -5.902285E+03	   9.790423E+05	   0.000000E+00	  -2.945864E+06	  -2.663649E+05	  -1.175217E+04	  -4.292981E+06	   1.001493E+08	   9.054063E-09
    0.2000	  -8.501839E-03	  -3.567631E+06	  -2.784361E+05	   8.073856E+07	  -4.499568E+06	   1.229131E+08	   5.522648E+03	   2.148290E-02	   1.790909E-04	   1.330294E-03	  -2.149644E-06	   2.224324E-04	  -1.409039E-05	   2.127303E-01	   7.269162E-03	   1.240923E-02	  -8.676593E-05	   2.193225E-03	  -3.181868E-04	   1.034353E+00	   1.372378E-01	   4.628560E-02	  -1.629577E-03	   1.052341E-02	  -3.331643E-03	  -5.922228E+05	   0.000000E+00	   4.404527E+04	   0.000000E+00	   2.109035E+07	   0.000000E+00	   0.000000E+00	   0.000000E+00	   8.070770E+07	  -1.073080E+04	   1.111981E+06	   0.000000E+00	  -2.948396E+06	  -2.775653E+05	  -1.117458E+04	  -4.485699E+06	   1.005634E+08	   8.656531E-09
    0.2125	  -6.073336E-03	  -3.573594E+06	  -2.769592E+05	   8.073982E+07	  -4.482593E+06	   1.234476E+08	   6.468048E+03	   2.422277E-02	   2.805556E-04	   1.488963E-03	  -3.360297E-06	   2.506687E-04	  -1.832527E-05	   2.256398E-01	   8.903673E-03	   1.297270E-02	  -1.063129E-04	   2.324458E-03	  -3.588639E-04	   1.032018E+00	   1.363625E-01	   4.387267E-02	  -1.619065E-03	   1.048290E-02	  -3.245287E-03	  -5.938543E+05	   0.000000E+00	   4.485911E+04	   0.000000E+00	   2.105301E+07	   0.000000E+00	   0.000000E+00	   0.000000E+00	   8.070765E+07	  -1.677578E+04	   1.253139E+06	   0.000000E+00	  -2.950796E+06	  -2.758828E+05	  -1.059347E+04	  -4.461770E+06	   1.009777E+08	   8.432155E-09
    0.2250	  -4.161010E-03	  -3.578384E+06	  -2.630293E+05	   8.074109E+07	  -4.257031E+06	   1.239732E+08	   7.454983E+03	   2.712382E-02	   4.022189E-04	   1.654486E-03	  -4.812528E-06	   2.805422E-04	  -2.306465E-05	   2.385151E-01	   1.049174E-02	   1.350597E-02	  -1.253034E-04	   2.455131E-03	  -3.989204E-04	   1.029084E+00	   1.293942E-01	   4.146094E-02	  -1.536487E-03	   1.043522E-02	  -3.283930E-03	  -5.954102E+05	   0.000000E+00	   4.567152E+04	   0.000000E+00	   2.101473E+07	   0.000000E+00	   0.000000E+00	   0.000000E+00	   8.070759E+07	  -2.402637E+04	   1.402483E+06	   0.000000E+00	  -2.952066E+06	  -2.617494E+05	  -1.001269E+04	  -4.227994E+06	   1.013750E+08	   8.532562E-09
    0.2375	  -2.840030E-03	  -3.581406E+06	  -2.384133E+05	   8.074235E+07	  -3.852889E+06	   1.244793E+08	   8.508597E+03	   3.018555E-02	   5.430563E-04	   1.826488E-03	  -6.494110E-06	   3.120450E-04	  -2.831128E-05	   2.513431E-01	   1.196992E-02	   1.400922E-02	  -1.429737E-04	   2.585089E-03	  -4.402711E-04	   1.025268E+00	   1.171993E-01	   3.906292E-02	  -1.392084E-03	   1.037703E-02	  -3.470888E-03	  -5.968855E+05	   0.000000E+00	   4.648239E+04	   0.000000E+00	   2.097553E+07	   0.000000E+00	   0.000000E+00	   0.000000E+00	   8.070754E+07	  -3.242109E+04	   1.559971E+06	   0.000000E+00	  -2.951621E+06	  -2.369399E+05	  -9.435266E+03	  -3.814474E+06	   1.017448E+08	   9.018334E-09
    0.2500	  -2.185567E-03	  -3.582146E+06	  -2.059067E+05	   8.074361E+07	  -3.317839E+06	   1.249559E+08	   9.657367E+03	   3.340729E-02	   7.013340E-04	   2.004593E-03	  -8.384256E-06	   3.451673E-04	  -3.409292E-05	   2.641150E-01	   1.328807E-02	   1.448262E-02	  -1.587192E-04	   2.714223E-03	  -4.848980E-04	   1.020334E+00	   1.011437E-01	   3.668726E-02	  -1.201991E-03	   1.030561E-02	  -3.780972E-03	  -5.982753E+05	   0.000000E+00	   4.729157E+04	   0.000000E+00	   2.093537E+07	   0.000000E+00	   0.000000E+00	   0.000000E+00	   8.070748E+07	  -4.185561E+04	   1.725556E+06	   0.000000E+00	  -2.948952E+06	  -2.042564E+05	  -8.863277E+03	  -3.269020E+06	   1.020772E+08	   9.824020E-09
    0.2625	  -1.946636E-03	  -3.574811E+06	  -1.690715E+05	   8.074487E+07	  -2.712700E+06	   1.252259E+08	   1.092374E+04	   3.678826E-02	   8.748028E-04	   2.188430E-03	  -1.045594E-05	   3.798978E-04	  -4.045864E-05	   2.768160E-01	   1.441328E-02	   1.492653E-02	  -1.721420E-04	   2.842359E-03	  -5.341583E-04	   1.012067E+00	   8.296511E-02	   3.428346E-02	  -9.867321E-04	   1.019740E-02	  -4.145281E-03	  -5.996026E+05	   0.000000E+00	   4.809984E+04	   0.000000E+00	   2.089431E+07	   0.000000E+00	   0.000000E+00	   0.000000E+00	   8.070742E+07	  -5.219433E+04	   1.899181E+06	   0.000000E+00	  -2.938246E+06	  -1.672657E+05	  -8.284539E+03	  -2.652616E+06	   1.021949E+08	   1.077060E-08
    0.2750	  -1.835413E-03	  -3.565069E+06	  -1.318470E+05	   8.074613E+07	  -2.105369E+06	   1.254631E+08	   1.231652E+04	   4.032720E-02	   1.060942E-03	   2.377627E-03	  -1.267883E-05	   4.162199E-04	  -4.746837E-05	   2.893926E-01	   1.533332E-02	   1.534027E-02	  -1.830925E-04	   2.968910E-03	  -5.882770E-04	   1.002608E+00	   6.457840E-02	   3.193241E-02	  -7.688993E-04	   1.007509E-02	  -4.467889E-03	  -6.008916E+05	   0.000000E+00	   4.890797E+04	   0.000000E+00	   2.085239E+07	   0.000000E+00	   0.000000E+00	   0.000000E+00	   8.070735E+07	  -6.328504E+04	   2.080763E+06	   0.000000E+00	  -2.925155E+06	  -1.299092E+05	  -7.718563E+03	  -2.033330E+06	   1.022720E+08	   1.160882E-08
    0.2875	  -1.871811E-03	  -3.553085E+06	  -9.812109E+04	   8.074737E+07	  -1.563142E+06	   1.256689E+08	   1.382635E+04	   4.402268E-02	   1.257221E-03	   2.571816E-03	  -1.502241E-05	   4.541151E-04	  -5.517704E-05	   3.018471E-01	   1.605694E-02	   1.572501E-02	  -1.916732E-04	   3.093882E-03	  -6.461200E-04	   9.920507E-01	   4.786985E-02	   2.963983E-02	  -5.707375E-04	   9.939836E-03	  -4.647103E-03	  -6.021389E+05	   0.000000E+00	   4.971588E+04	   0.000000E+00	   2.080961E+07	   0.000000E+00	   0.000000E+00	   0.000000E+00	   8.070729E+07	  -7.497453E+04	   2.270209E+06	   0.000000E+00	  -2.909849E+06	  -9.607438E+04	  -7.166727E+03	  -1.478621E+06	   1.023100E+08	   1.207447E-08
    0.3000	  -2.075746E-03	  -3.539370E+06	  -7.127463E+04	   8.074860E+07	  -1.144844E+06	   1.258519E+08	   1.542487E+04	   4.787296E-02	   1.461359E-03	   2.770636E-03	  -1.745910E-05	   4.935612E-04	  -6.361768E-05	   3.141681E-01	   1.661232E-02	   1.608151E-02	  -1.982204E-04	   3.217138E-03	  -7.052566E-04	   9.806490E-01	   3.447578E-02	   2.740717E-02	  -4.115318E-04	   9.794636E-03	  -4.600515E-03	  -6.033406E+05	   0.000000E+00	   5.052340E+04	   0.000000E+00	   2.076597E+07	   0.000000E+00	   0.000000E+00	   0.000000E+00	   8.070722E+07	  -8.712429E+04	   2.467409E+06	   0.000000E+00	  -2.892844E+06	  -6.913916E+04	  -6.629377E+03	  -1.047448E+06	   1.023176E+08	   1.195343E-08
    0.3125	  -2.467132E-03	  -3.524870E+06	  -5.379565E+04	   8.074981E+07	  -8.940482E+05	   1.260274E+08	   1.706854E+04	   5.187635E-02	   1.671538E-03	   2.973739E-03	  -1.996685E-05	   5.345366E-04	  -7.278738E-05	   3.263487E-01	   1.704313E-02	   1.641049E-02	  -2.032566E-04	   3.338597E-03	  -7.623594E-04	   9.688730E-01	   2.559645E-02	   2.525120E-02	  -3.054173E-04	   9.645069E-03	  -4.279838E-03	  -6.044939E+05	   0.000000E+00	   5.133042E+04	   0.000000E+00	   2.072146E+07	   0.000000E+00	   0.000000E+00	   0.000000E+00	   8.070715E+07	  -9.962346E+04	   2.672254E+06	   0.000000E+00	  -2.875091E+06	  -5.158645E+04	  -6.110559E+03	  -7.834799E+05	   1.023103E+08	   1.112023E-08
    0.3250	  -3.065879E-03	  -3.510694E+06	  -4.702873E+04	   8.075101E+07	  -8.346124E+05	   1.262140E+08	   1.870447E+04	   5.603110E-02	   1.886561E-03	   3.180788E-03	  -2.253104E-05	   5.770187E-04	  -8.263870E-05	   3.383893E-01	   1.740248E-02	   1.671304E-02	  -2.074188E-04	   3.458259E-03	  -8.137181E-04	   9.572701E-01	   2.187590E-02	   2.318238E-02	  -2.599659E-04	   9.497618E-03	  -3.688009E-03	  -6.055953E+05	   0.000000E+00	   5.213681E+04	   0.000000E+00	   2.067607E+07	   0.000000E+00	   0.000000E+00	   0.000000E+00	   8.070709E+07	  -1.123984E+05	   2.884632E+06	   0.000000E+00	  -2.857706E+06	  -4.475432E+04	  -5.612790E+03	  -7.106211E+05	   1.023067E+08	   9.582491E-09
    0.3375	  -3.891906E-03	  -3.497987E+06	  -5.091385E+04	   8.075218E+07	  -9.655943E+05	   1.264304E+08	   2.028015E+04	   6.033547E-02	   2.105929E-03	   3.391460E-03	  -2.514537E-05	   6.209853E-04	  -9.307967E-05	   3.502956E-01	   1.774693E-02	   1.699028E-02	  -2.113854E-04	   3.576197E-03	  -8.559875E-04	   9.464031E-01	   2.328003E-02	   2.119809E-02	  -2.747682E-04	   9.358947E-03	  -2.878948E-03	  -6.066411E+05	   0.000000E+00	   5.294242E+04	   0.000000E+00	   2.062980E+07	   0.000000E+00	   0.000000E+00	   0.000000E+00	   8.070702E+07	  -1.254174E+05	   3.104432E+06	   0.000000E+00	  -2.841832E+06	  -4.857552E+04	  -5.135438E+03	  -8.279281E+05	   1.023259E+08	   7.480332E-09
    0.3500	  -4.965123E-03	  -3.487817E+06	  -6.405773E+04	   8.075334E+07	  -1.262654E+06	   1.266947E+08	   2.175236E+04	   6.478787E-02	   2.329826E-03	   3.605445E-03	  -2.781178E-05	   6.664158E-04	  -1.039817E-04	   3.620799E-01	   1.812837E-02	   1.724323E-02	  -2.157799E-04	   3.692552E-03	  -8.868144E-04	   9.367983E-01	   2.913056E-02	   1.929296E-02	  -3.418286E-04	   9.235285E-03	  -1.950118E-03	  -6.076282E+05	   0.000000E+00	   5.374717E+04	   0.000000E+00	   2.058264E+07	   0.000000E+00	   0.000000E+00	   0.000000E+00	   8.070694E+07	  -1.386898E+05	   3.331550E+06	   0.000000E+00	  -2.828543E+06	  -6.164994E+04	  -4.677205E+03	  -1.111016E+06	   1.023857E+08	   5.066980E-09
    0.3625	  -6.305446E-03	  -3.481086E+06	  -8.385635E+04	   8.075448E+07	  -1.680126E+06	   1.270218E+08	   2.309518E+04	   6.938686E-02	   2.559018E-03	   3.822445E-03	  -3.053921E-05	   7.132917E-04	  -1.151954E-04	   3.737601E-01	   1.858715E-02	   1.747286E-02	  -2.210887E-04	   3.807542E-03	  -9.053324E-04	   9.288986E-01	   3.816535E-02	   1.745765E-02	  -4.462786E-04	   9.131876E-03	  -1.018294E-03	  -6.085532E+05	   0.000000E+00	   5.455088E+04	   0.000000E+00	   2.053459E+07	   0.000000E+00	   0.000000E+00	   0.000000E+00	   8.070687E+07	  -1.522604E+05	   3.565894E+06	   0.000000E+00	  -2.818740E+06	  -8.136805E+04	  -4.235833E+03	  -1.514144E+06	   1.025014E+08	   2.645848E-09
    0.3750	  -7.932790E-03	  -3.478708E+06	  -1.067170E+05	   8.075560E+07	  -2.154901E+06	   1.274274E+08	   2.430285E+04	   7.413131E-02	   2.794666E-03	   4.042173E-03	  -3.334138E-05	   7.615976E-04	  -1.265695E-04	   3.853583E-01	   1.914696E-02	   1.767996E-02	  -2.275990E-04	   3.921432E-03	  -9.122424E-04	   9.231483E-01	   4.864624E-02	   1.568866E-02	  -5.676476E-04	   9.053959E-03	  -1.914432E-04	  -6.094124E+05	   0.000000E+00	   5.535346E+04	   0.000000E+00	   2.048563E+07	   0.000000E+00	   0.000000E+00	   0.000000E+00	   8.070680E+07	  -1.661978E+05	   3.807388E+06	   0.000000E+00	  -2.813338E+06	  -1.041337E+05	  -3.810479E+03	  -1.974111E+06	   1.026887E+08	   4.974655E-10
    0.3875	  -9.867064E-03	  -3.480842E+06	  -1.285539E+05	   8.075671E+07	  -2.615520E+06	   1.279138E+08	   2.538788E+04	   7.902035E-02	   3.038084E-03	   4.264353E-03	  -3.623395E-05	   8.113218E-04	  -1.379692E-04	   3.969016E-01	   1.981013E-02	   1.786537E-02	  -2.353420E-04	   4.034544E-03	  -9.095250E-04	   9.196311E-01	   5.859590E-02	   1.397818E-02	  -6.826390E-04	   9.002545E-03	   4.534863E-04	  -6.102028E+05	   0.000000E+00	   5.615475E+04	   0.000000E+00	   2.043578E+07	   0.000000E+00	   0.000000E+00	   0.000000E+00	   8.070673E+07	  -1.805806E+05	   4.055972E+06	   0.000000E+00	  -2.812496E+06	  -1.258605E+05	  -3.399253E+03	  -2.419372E+06	   1.029498E+08	  -1.178235E-09
    0.4000	  -1.212819E-02	  -3.487600E+06	  -1.451566E+05	   8.075782E+07	  -2.988662E+06	   1.284827E+08	   2.637554E+04	   8.405347E-02	   3.290470E-03	   4.488719E-03	  -3.923116E-05	   8.624566E-04	  -1.492897E-04	   4.084151E-01	   2.055709E-02	   1.802976E-02	  -2.440865E-04	   4.147181E-03	  -8.999183E-04	   9.184001E-01	   6.597579E-02	   1.233482E-02	  -7.672251E-04	   8.978258E-03	   8.900490E-04	  -6.109206E+05	   0.000000E+00	   5.695464E+04	   0.000000E+00	   2.038501E+07	   0.000000E+00	   0.000000E+00	   0.000000E+00	   8.070665E+07	  -1.954801E+05	   4.311609E+06	   0.000000E+00	  -2.816323E+06	  -1.423403E+05	  -3.004232E+03	  -2.776542E+06	   1.032866E+08	  -2.312542E-09
    0.4125	  -1.473607E-02	  -3.498655E+06	  -1.526934E+05	   8.075890E+07	  -3.207952E+06	   1.291286E+08	   2.729454E+04	   8.923046E-02	   3.552618E-03	   4.715014E-03	  -4.234259E-05	   9.149982E-04	  -1.604607E-04	   4.199254E-01	   2.134640E-02	   1.817405E-02	  -2.533385E-04	   4.259664E-03	  -8.861649E-04	   9.192974E-01	   6.892968E-02	   1.076279E-02	  -7.995159E-04	   8.979237E-03	   1.136507E-03	  -6.115627E+05	   0.000000E+00	   5.775300E+04	   0.000000E+00	   2.033332E+07	   0.000000E+00	   0.000000E+00	   0.000000E+00	   8.070658E+07	  -2.109444E+05	   4.574278E+06	   0.000000E+00	  -2.824493E+06	  -1.497468E+05	  -2.626430E+03	  -2.979224E+06	   1.036935E+08	  -2.952905E-09
    0.4250	  -1.771063E-02	  -3.513257E+06	  -1.481735E+05	   8.075996E+07	  -3.222057E+06	   1.298384E+08	   2.817022E+04	   9.455146E-02	   3.824680E-03	   4.942991E-03	  -4.557008E-05	   9.689464E-04	  -1.714445E-04	   4.314549E-01	   2.211874E-02	   1.829915E-02	  -2.623883E-04	   4.372258E-03	  -8.705037E-04	   9.219607E-01	   6.600690E-02	   9.257924E-03	  -7.623884E-04	   9.001214E-03	   1.252153E-03	  -6.121256E+05	   0.000000E+00	   5.854971E+04	   0.000000E+00	   2.028072E+07	   0.000000E+00	   0.000000E+00	   0.000000E+00	   8.070650E+07	  -2.269828E+05	   4.843980E+06	   0.000000E+00	  -2.836254E+06	  -1.450973E+05	  -2.264838E+03	  -2.976126E+06	   1.041573E+08	  -3.253382E-09
    0.4375	  -2.107177E-02	  -3.530607E+06	  -1.298051E+05	   8.076100E+07	  -3.000685E+06	   1.305987E+08	   2.901714E+04	   1.000168E-01	   4.105969E-03	   5.172416E-03	  -4.890548E-05	   1.024304E-03	  -1.822254E-04	   4.430210E-01	   2.280231E-02	   1.840588E-02	  -2.703750E-04	   4.485177E-03	  -8.541787E-04	   9.259985E-01	   5.633756E-02	   7.831039E-03	  -6.455596E-04	   9.039554E-03	   1.315350E-03	  -6.126061E+05	   0.000000E+00	   5.934461E+04	   0.000000E+00	   2.022718E+07	   0.000000E+00	   0.000000E+00	   0.000000E+00	   8.070642E+07	  -2.435544E+05	   5.120729E+06	   0.000000E+00	  -2.850809E+06	  -1.266101E+05	  -1.922066E+03	  -2.737056E+06	   1.046647E+08	  -3.417582E-09
    0.4500	  -2.483942E-02	  -3.549635E+06	  -9.725770E+04	   8.076203E+07	  -2.538771E+06	   1.313917E+08	   2.983663E+04	   1.056271E-01	   4.394854E-03	   5.403066E-03	  -5.232932E-05	   1.081076E-03	  -1.927973E-04	   4.546369E-01	   2.332014E-02	   1.849528E-02	  -2.763741E-04	   4.598579E-03	  -8.373472E-04	   9.308879E-01	   3.976161E-02	   6.487692E-03	  -4.471204E-04	   9.088069E-03	   1.402636E-03	  -6.130003E+05	   0.000000E+00	   6.013762E+04	   0.000000E+00	   2.017271E+07	   0.000000E+00	   0.000000E+00	   0.000000E+00	   8.070634E+07	  -2.605619E+05	   5.404548E+06	   0.000000E+00	  -2.867087E+06	  -9.396560E+04	  -1.599451E+03	  -2.257118E+06	   1.051977E+08	  -3.644373E-09
    0.4625	  -2.903349E-02	  -3.569239E+06	  -5.173970E+04	   8.076303E+07	  -1.857472E+06	   1.321990E+08	   3.061752E+04	   1.113829E-01	   4.688750E-03	   5.634731E-03	  -5.581069E-05	   1.139270E-03	  -2.031504E-04	   4.663088E-01	   2.359857E-02	   1.856842E-02	  -2.794993E-04	   4.712539E-03	  -8.192331E-04	   9.360913E-01	   1.686915E-02	   5.232398E-03	  -1.740220E-04	   9.140401E-03	   1.569739E-03	  -6.133051E+05	   0.000000E+00	   6.092855E+04	   0.000000E+00	   2.011730E+07	   0.000000E+00	   0.000000E+00	   0.000000E+00	   8.070627E+07	  -2.778509E+05	   5.695478E+06	   0.000000E+00	  -2.883989E+06	  -4.838330E+04	  -1.298082E+03	  -1.557701E+06	   1.057380E+08	  -4.078550E-09
    0.4750	  -3.367389E-02	  -3.588308E+06	   4.084221E+03	   8.076402E+07	  -1.002375E+06	   1.330020E+08	   3.134012E+04	   1.172850E-01	   4.984219E-03	   5.867214E-03	  -5.930834E-05	   1.198892E-03	  -2.132618E-04	   4.780373E-01	   2.357516E-02	   1.862643E-02	  -2.789968E-04	   4.827067E-03	  -7.985034E-04	   9.410662E-01	  -1.103779E-02	   4.060637E-03	   1.583625E-04	   9.190130E-03	   1.839547E-03	  -6.135174E+05	   0.000000E+00	   6.171734E+04	   0.000000E+00	   2.006095E+07	   0.000000E+00	   0.000000E+00	   0.000000E+00	   8.070619E+07	  -2.952151E+05	   5.993546E+06	   0.000000E+00	  -2.900407E+06	   7.462553E+03	  -1.016865E+03	  -6.846731E+05	   1.062668E+08	  -4.779583E-09
    0.4875	  -3.878053E-02	  -3.605956E+06	   6.638449E+04	   8.076498E+07	  -3.818523E+04	   1.337863E+08	   3.198198E+04	   1.233341E-01	   5.277157E-03	   6.100332E-03	  -6.277300E-05	   1.259950E-03	  -2.230905E-04	   4.898160E-01	   2.320573E-02	   1.867031E-02	  -2.743321E-04	   4.942088E-03	  -7.737514E-04	   9.453789E-01	  -4.208489E-02	   2.964545E-03	   5.278763E-04	   9.232113E-03	   2.198817E-03	  -6.136333E+05	   0.000000E+00	   6.250383E+04	   0.000000E+00	   2.000365E+07	   0.000000E+00	   0.000000E+00	   0.000000E+00	   8.070611E+07	  -3.124086E+05	   6.298792E+06	   0.000000E+00	  -2.915458E+06	   6.973510E+04	  -7.539031E+02	   2.969549E+05	   1.067698E+08	  -5.713065E-09
    0.5000	  -4.437332E-02	  -3.620824E+06	   1.305317E+05	   8.076593E+07	   9.572883E+05	   1.345287E+08	   3.252433E+04	   1.295307E-01	   5.563060E-03	   6.333915E-03	  -6.615052E-05	   1.322448E-03	  -2.325804E-04	   5.016351E-01	   2.246972E-02	   1.870096E-02	  -2.652540E-04	   5.057485E-03	  -7.439626E-04	   9.483717E-01	  -7.400568E-02	   1.949529E-03	   9.077140E-04	   9.258586E-03	   2.617336E-03	  -6.136498E+05	   0.000000E+00	   6.328787E+04	   0.000000E+00	   1.994539E+07	   0.000000E+00	   0.000000E+00	   0.000000E+00	   8.070603E+07	  -3.291610E+05	   6.611238E+06	   0.000000E+00	  -2.927791E+06	   1.338009E+05	  -5.104981E+02	   1.309060E+06	   1.072238E+08	  -6.800490E-09