
Predictions were generated on 31-May-2023 at 21:33:48 using HydroDyn Driver, compiled on May 31 2023 at 15:45:05 as a 64-bit application using double precision at commit v3.5.0-439-g03d62244-dirty
 linked with  NWTC Subroutine Library

Description from the driver input file: NREL 5.0 MW offshore baseline floating platform HydroDyn input properties for the OC3 Hywind.

Time	Wave1Elev	HydroFxi	HydroFyi	HydroFzi	HydroMxi	HydroMyi	HydroMzi	B1Surge	B1Sway	B1Heave	B1Roll	B1Pitch	B1Yaw	B1TVxi	B1TVyi	B1TVzi	B1RVxi	B1RVyi	B1RVzi	B1TAxi	B1TAyi	B1TAzi	B1RAxi	B1RAyi	B1RAzi	B1WvsFxi	B1WvsFyi	B1WvsFzi	B1WvsMxi	B1WvsMyi	B1WvsMzi	B1HDSFxi	B1HDSFyi	B1HDSFzi	B1HDSMxi	B1HDSMyi	B1HDSMzi	B1RdtFxi	B1RdtFyi	B1RdtFzi	B1RdtMxi	B1RdtMyi	B1RdtMzi
(s)	(m)	(N)	(N)	(N)	(N-m)	(N-m)	(N-m)	(m)	(m)	(m)	(rad)	(rad)	(rad)	(m/s)	(m/s)	(m/s)	(rad/s)	(rad/s)	(rad/s)	(m/s^2)	(m/s^2)	(m/s^2)	(rad/s^2)	(rad/s^2)	(rad/s^2)	(N)	(N)	(N)	(N-m)	(N-m)	(N-m)	(N)	(N)	(N)	(N-m)	(N-m)	(N-m)	(N)	(N)	(N)	(N-m)	(N-m)	(N-m)
    0.0000	  -5.621933E-02	  -3.515387E+06	   2.134696E+03	   8.072125E+07	   4.010051E+04	   1.170014E+08	   2.551026E-21	   0.000000E+00	   0.000000E+00	   0.000000E+00	   0.000000E+00	   0.000000E+00	   0.000000E+00	   0.000000E+00	   0.000000E+00	   0.000000E+00	   0.000000E+00	   0.000000E+00	   0.000000E+00	   1.083502E+00	  -1.011211E-03	   7.264068E-02	   1.182139E-05	   1.128366E-02	  -9.818152E-16	  -5.598316E+05	   0.000000E+00	   3.095669E+04	   0.000000E+00	   2.157091E+07	   0.000000E+00	   0.000000E+00	   0.000000E+00	   8.070814E+07	   0.000000E+00	  -0.000000E+00	   0.000000E+00	  -2.955423E+06	   2.134696E+03	  -1.752492E+04	   4.010051E+04	   9.542751E+07	   2.551026E-21
    0.0125	  -5.351764E-02	  -3.533382E+06	   7.083048E+03	   8.072211E+07	   1.317863E+05	   1.174918E+08	   1.637380E-05	   8.456044E-05	  -2.653158E-07	   5.681249E-06	   2.891215E-09	   8.805926E-07	  -3.840416E-16	   1.351642E-02	  -6.062287E-05	   9.094556E-04	   6.544772E-07	   1.407532E-04	  -4.299313E-13	   1.088517E+00	  -3.361551E-03	   7.192519E-02	   3.933822E-05	   1.133393E-02	   4.246625E-05	  -5.617538E+05	   0.000000E+00	   3.177344E+04	   0.000000E+00	   2.153914E+07	   0.000000E+00	   0.000000E+00	   0.000000E+00	   8.070814E+07	   1.445372E+01	   4.402245E+03	   0.000000E+00	  -2.970038E+06	   7.076726E+03	  -1.735230E+04	   1.317660E+05	   9.594278E+07	  -1.103390E-10
    0.0250	  -5.081595E-02	  -3.545980E+06	   1.501055E+04	   8.072301E+07	   2.803574E+05	   1.179099E+08	  -1.078627E+01	   3.384571E-04	  -1.467541E-06	   2.264699E-05	   1.613440E-08	   3.524333E-06	   4.423635E-09	   2.709371E-02	  -1.473500E-04	   1.803258E-03	   1.634756E-06	   2.820963E-04	   7.962562E-07	   1.090781E+00	  -7.114416E-03	   7.106396E-02	   8.321917E-05	   1.135136E-02	   1.455988E-04	  -5.636759E+05	   0.000000E+00	   3.259019E+04	   0.000000E+00	   2.150736E+07	   0.000000E+00	   0.000000E+00	   0.000000E+00	   8.070814E+07	   8.065883E+01	   1.761879E+04	   0.000000E+00	  -2.979223E+06	   1.499506E+04	  -1.714456E+04	   2.802592E+05	   9.637609E+07	  -3.783059E-10
    0.0375	  -4.811425E-02	  -3.553004E+06	   2.362289E+04	   8.072393E+07	   4.455447E+05	   1.182518E+08	  -4.518741E+01	   7.622041E-04	  -4.006253E-06	   5.071580E-05	   4.466660E-08	   7.935672E-06	   2.843767E-08	   4.068995E-02	  -2.682619E-04	   2.685803E-03	   3.038221E-06	   4.235346E-04	   3.260857E-06	   1.090201E+00	  -1.116006E-02	   7.010078E-02	   1.303932E-04	   1.133483E-02	   2.513164E-04	  -5.655981E+05	   0.000000E+00	   3.340693E+04	   0.000000E+00	   2.147558E+07	   0.000000E+00	   0.000000E+00	   0.000000E+00	   8.070813E+07	   2.232966E+02	   3.967189E+04	   0.000000E+00	  -2.982803E+06	   2.359445E+04	  -1.691231E+04	   4.452834E+05	   9.672340E+07	  -6.529894E-10
    0.0500	  -4.541256E-02	  -3.555621E+06	   3.020047E+04	   8.072488E+07	   5.797058E+05	   1.185373E+08	  -1.007393E+02	   1.355873E-03	  -8.321455E-06	   8.973917E-05	   9.387315E-08	   1.411371E-05	   9.052790E-08	   5.427160E-02	  -4.138011E-04	   3.555445E-03	   4.758035E-06	   5.646635E-04	   7.064423E-06	   1.087345E+00	  -1.418360E-02	   6.902434E-02	   1.653708E-04	   1.129106E-02	   2.760049E-04	  -5.675203E+05	   0.000000E+00	   3.422368E+04	   0.000000E+00	   2.144380E+07	   0.000000E+00	   0.000000E+00	   0.000000E+00	   8.070811E+07	   4.692892E+02	   7.055706E+04	   0.000000E+00	  -2.981945E+06	   3.015622E+04	  -1.665280E+04	   5.791690E+05	   9.700470E+07	  -7.171368E-10
    0.0625	  -4.271087E-02	  -3.554996E+06	   3.194008E+04	   8.072585E+07	   6.336559E+05	   1.187863E+08	  -1.576691E+02	   2.119066E-03	  -1.460001E-05	   1.395442E-04	   1.662769E-07	   2.205215E-05	   1.985532E-07	   6.781384E-02	  -5.672064E-04	   4.410864E-03	   6.588723E-06	   7.051870E-04	   1.062654E-05	   1.082781E+00	  -1.483067E-02	   6.782102E-02	   1.722003E-04	   1.122678E-02	   1.408313E-04	  -5.694425E+05	   0.000000E+00	   3.504042E+04	   0.000000E+00	   2.141203E+07	   0.000000E+00	   0.000000E+00	   0.000000E+00	   8.070810E+07	   8.312488E+02	   1.102428E+05	   0.000000E+00	  -2.977818E+06	   3.187888E+04	  -1.636276E+04	   6.327197E+05	   9.723979E+07	  -3.659186E-10
    0.0750	  -4.000917E-02	  -3.552452E+06	   2.647236E+04	   8.072686E+07	   5.657994E+05	   1.190212E+08	  -1.819497E+02	   3.051160E-03	  -2.273404E-05	   1.999444E-04	   2.608064E-07	   3.174182E-05	   3.354805E-07	   8.129838E-02	  -6.924061E-04	   5.250393E-03	   8.100993E-06	   8.448854E-04	   1.145863E-05	   1.077158E+00	  -1.195804E-02	   6.649108E-02	   1.374180E-04	   1.114964E-02	  -1.896767E-04	  -5.713648E+05	   0.000000E+00	   3.585717E+04	   0.000000E+00	   2.138025E+07	   0.000000E+00	   0.000000E+00	   0.000000E+00	   8.070808E+07	   1.303819E+03	   1.586832E+05	   0.000000E+00	  -2.971742E+06	   2.639690E+04	  -1.604224E+04	   5.643523E+05	   9.745109E+07	   4.928322E-10
    0.0875	  -3.730748E-02	  -3.549248E+06	   1.217357E+04	   8.072789E+07	   3.472909E+05	   1.192627E+08	  -1.344238E+02	   4.151368E-03	  -3.207551E-05	   2.707317E-04	   3.699869E-07	   4.317163E-05	   4.522444E-07	   9.471598E-02	  -7.460186E-04	   6.072491E-03	   8.772927E-06	   9.836456E-04	   6.919775E-06	   1.071092E+00	  -4.786116E-03	   6.501976E-02	   5.185427E-05	   1.106695E-02	  -7.120530E-04	  -5.732869E+05	   0.000000E+00	   3.667391E+04	   0.000000E+00	   2.134847E+07	   0.000000E+00	   0.000000E+00	   0.000000E+00	   8.070806E+07	   1.849633E+03	   2.158229E+05	   0.000000E+00	  -2.964978E+06	   1.209146E+04	  -1.568769E+04	   3.452704E+05	   9.765947E+07	   1.850110E-09
    0.1000	  -3.460579E-02	  -3.545789E+06	  -1.148906E+04	   8.072896E+07	  -3.186341E+04	   1.195166E+08	   2.357171E+01	   5.418831E-03	  -4.139545E-05	   3.516762E-04	   4.793511E-07	   5.632958E-05	   4.672151E-07	   1.080634E-01	  -6.781432E-04	   6.875259E-03	   8.005033E-06	   1.121427E-03	  -5.346496E-06	   1.064791E+00	   6.934569E-03	   6.340061E-02	  -8.740698E-05	   1.098119E-02	  -1.367798E-03	  -5.752091E+05	   0.000000E+00	   3.749066E+04	   0.000000E+00	   2.131670E+07	   0.000000E+00	   0.000000E+00	   0.000000E+00	   8.070802E+07	   2.396364E+03	   2.816020E+05	   0.000000E+00	  -2.957931E+06	  -1.156443E+04	  -1.529754E+04	  -3.443012E+04	   9.787074E+07	   3.553916E-09
    0.1125	  -3.190409E-02	  -3.542694E+06	  -4.385346E+04	   8.073006E+07	  -5.611691E+05	   1.197925E+08	   3.188647E+02	   6.852647E-03	  -4.883668E-05	   4.425248E-04	   5.668878E-07	   7.120309E-05	   2.758628E-07	   1.213366E-01	  -4.413744E-04	   7.656862E-03	   5.224941E-06	   1.258182E-03	  -2.661302E-05	   1.058563E+00	   2.287222E-02	   6.164549E-02	  -2.764202E-04	   1.089605E-02	  -2.067757E-03	  -5.771313E+05	   0.000000E+00	   3.830741E+04	   0.000000E+00	   2.128492E+07	   0.000000E+00	   0.000000E+00	   0.000000E+00	   8.070800E+07	   2.833976E+03	   3.559574E+05	   0.000000E+00	  -2.951220E+06	  -4.390299E+04	  -1.487465E+04	  -5.641236E+05	   9.809464E+07	   5.372601E-09
    0.1250	  -2.920240E-02	  -3.540805E+06	  -8.307627E+04	   8.073120E+07	  -1.209890E+06	   1.201044E+08	   7.623699E+02	   8.451907E-03	  -5.199319E-05	   5.430034E-04	   6.039456E-07	   8.777955E-05	  -2.355056E-07	   1.345390E-01	   4.751763E-06	   8.415682E-03	  -5.637229E-08	   1.393946E-03	  -5.685919E-05	   1.052824E+00	   4.212048E-02	   5.975761E-02	  -5.044572E-04	   1.081644E-02	  -2.712281E-03	  -5.790535E+05	   0.000000E+00	   3.912415E+04	   0.000000E+00	   2.125314E+07	   0.000000E+00	   0.000000E+00	   0.000000E+00	   8.070797E+07	   3.019236E+03	   4.388262E+05	   0.000000E+00	  -2.945687E+06	  -8.307572E+04	  -1.441981E+04	  -1.212908E+06	   9.834503E+07	   7.047254E-09
    0.1375	  -2.650071E-02	  -3.540869E+06	  -1.262751E+05	   8.073237E+07	  -1.929433E+06	   1.204645E+08	   1.347293E+03	   1.021578E-02	  -4.803486E-05	   6.528162E-04	   5.567304E-07	   1.060472E-04	  -1.172448E-06	   1.476775E-01	   6.869789E-04	   9.150110E-03	  -8.164156E-06	   1.528801E-03	  -9.476365E-05	   1.047940E+00	   6.326863E-02	   5.774008E-02	  -7.548376E-04	   1.074670E-02	  -3.218326E-03	  -5.809757E+05	   0.000000E+00	   3.994090E+04	   0.000000E+00	   2.122137E+07	   0.000000E+00	   0.000000E+00	   0.000000E+00	   8.070793E+07	   2.783198E+03	   5.301494E+05	   0.000000E+00	  -2.942080E+06	  -1.261965E+05	  -1.393375E+04	  -1.931997E+06	   9.863440E+07	   8.362097E-09
    0.1500	  -2.379901E-02	  -3.543125E+06	  -1.699271E+05	   8.073356E+07	  -2.660272E+06	   1.208760E+08	   2.052700E+03	   1.214353E-02	  -3.391656E-05	   7.716484E-04	   3.887949E-07	   1.259954E-04	  -2.618404E-06	   1.607625E-01	   1.614128E-03	   9.858570E-03	  -1.920836E-05	   1.662870E-03	  -1.380847E-04	   1.044034E+00	   8.459502E-02	   5.561105E-02	  -1.007209E-03	   1.068831E-02	  -3.535831E-03	  -5.828979E+05	   0.000000E+00	   4.075764E+04	   0.000000E+00	   2.118959E+07	   0.000000E+00	   0.000000E+00	   0.000000E+00	   8.070789E+07	   1.943657E+03	   6.298743E+05	   0.000000E+00	  -2.940635E+06	  -1.697407E+05	  -1.342085E+04	  -2.661664E+06	   9.896598E+07	   9.187064E-09
    0.1625	  -2.109732E-02	  -3.547729E+06	  -2.102443E+05	   8.073478E+07	  -3.338296E+06	   1.213415E+08	   2.849257E+03	   1.423457E-02	  -6.615676E-06	   8.991678E-04	   6.389308E-08	   1.476152E-04	  -4.625748E-06	   1.738034E-01	   2.775338E-03	   1.053979E-02	  -3.306183E-05	   1.796266E-03	  -1.841697E-04	   1.041181E+00	   1.042506E-01	   5.337135E-02	  -1.239719E-03	   1.064218E-02	  -3.660278E-03	  -5.848201E+05	   0.000000E+00	   4.157439E+04	   0.000000E+00	   2.115781E+07	   0.000000E+00	   0.000000E+00	   0.000000E+00	   8.070785E+07	   3.194133E+02	   7.379557E+05	   0.000000E+00	  -2.941508E+06	  -2.099209E+05	  -1.288131E+04	  -3.337606E+06	   9.934227E+07	   9.510412E-09
    0.1750	  -1.839563E-02	  -3.553232E+06	  -2.436237E+05	   8.073602E+07	  -3.902472E+06	   1.218343E+08	   3.707510E+03	   1.648841E-02	   3.661522E-05	   1.035024E-03	  -4.509755E-07	   1.708992E-04	  -7.214613E-06	   1.868121E-01	   4.139513E-03	   1.119240E-02	  -4.935390E-05	   1.929127E-03	  -2.306004E-04	   1.038693E+00	   1.204783E-01	   5.105397E-02	  -1.431603E-03	   1.060021E-02	  -3.621246E-03	  -5.867422E+05	   0.000000E+00	   4.239114E+04	   0.000000E+00	   2.112604E+07	   0.000000E+00	   0.000000E+00	   0.000000E+00	   8.070780E+07	  -2.254510E+03	   8.543564E+05	   0.000000E+00	  -2.943249E+06	  -2.431368E+05	  -1.232309E+04	  -3.898618E+06	   9.973664E+07	   9.408996E-09
    0.1875	  -1.569393E-02	  -3.559644E+06	  -2.670366E+05	   8.073728E+07	  -4.301214E+06	   1.223546E+08	   4.602788E+03	   1.890465E-02	   9.800876E-05	   1.178856E-03	  -1.182682E-06	   1.958404E-04	  -1.037753E-05	   1.997850E-01	   5.658092E-03	   1.181574E-02	  -6.750297E-05	   2.061418E-03	  -2.755357E-04	   1.036572E+00	   1.318051E-01	   4.868373E-02	  -1.565464E-03	   1.056244E-02	  -3.484642E-03	  -5.886645E+05	   0.000000E+00	   4.320788E+04	   0.000000E+00	   2.109426E+07	   0.000000E+00	   0.000000E+00	   0.000000E+00	   8.070775E+07	  -5.912447E+03	   9.790421E+05	   0.000000E+00	  -2.945866E+06	  -2.663650E+05	  -1.175217E+04	  -4.292987E+06	   1.001494E+08	   9.054063E-09
    0.2000	  -1.299224E-02	  -3.565996E+06	  -2.784362E+05	   8.073854E+07	  -4.499585E+06	   1.228850E+08	   5.522458E+03	   2.148290E-02	   1.790909E-04	   1.330294E-03	  -2.149644E-06	   2.224324E-04	  -1.409039E-05	   2.127303E-01	   7.269162E-03	   1.240923E-02	  -8.676593E-05	   2.193226E-03	  -3.181868E-04	   1.034353E+00	   1.372378E-01	   4.628560E-02	  -1.629577E-03	   1.052341E-02	  -3.331643E-03	  -5.905867E+05	   0.000000E+00	   4.402463E+04	   0.000000E+00	   2.106248E+07	   0.000000E+00	   0.000000E+00	   0.000000E+00	   8.070770E+07	  -1.074647E+04	   1.111981E+06	   0.000000E+00	  -2.948395E+06	  -2.775654E+05	  -1.117458E+04	  -4.485700E+06	   1.005632E+08	   8.656530E-09
    0.2125	  -1.029055E-02	  -3.572253E+06	  -2.769590E+05	   8.073981E+07	  -4.482610E+06	   1.234253E+08	   6.467804E+03	   2.422277E-02	   2.805556E-04	   1.488963E-03	  -3.360297E-06	   2.506687E-04	  -1.832527E-05	   2.256398E-01	   8.903673E-03	   1.297270E-02	  -1.063129E-04	   2.324458E-03	  -3.588640E-04	   1.032018E+00	   1.363625E-01	   4.387267E-02	  -1.619064E-03	   1.048290E-02	  -3.245286E-03	  -5.925089E+05	   0.000000E+00	   4.484138E+04	   0.000000E+00	   2.103071E+07	   0.000000E+00	   0.000000E+00	   0.000000E+00	   8.070765E+07	  -1.679875E+04	   1.253139E+06	   0.000000E+00	  -2.950797E+06	  -2.758826E+05	  -1.059347E+04	  -4.461764E+06	   1.009778E+08	   8.432154E-09
    0.2250	  -7.588852E-03	  -3.577410E+06	  -2.630295E+05	   8.074108E+07	  -4.257072E+06	   1.239575E+08	   7.454680E+03	   2.712382E-02	   4.022189E-04	   1.654486E-03	  -4.812528E-06	   2.805422E-04	  -2.306465E-05	   2.385151E-01	   1.049174E-02	   1.350597E-02	  -1.253034E-04	   2.455131E-03	  -3.989204E-04	   1.029084E+00	   1.293942E-01	   4.146094E-02	  -1.536487E-03	   1.043522E-02	  -3.283930E-03	  -5.944311E+05	   0.000000E+00	   4.565812E+04	   0.000000E+00	   2.099893E+07	   0.000000E+00	   0.000000E+00	   0.000000E+00	   8.070759E+07	  -2.405872E+04	   1.402482E+06	   0.000000E+00	  -2.952069E+06	  -2.617496E+05	  -1.001269E+04	  -4.228002E+06	   1.013752E+08	   8.532561E-09
    0.2375	  -4.887159E-03	  -3.580871E+06	  -2.384138E+05	   8.074234E+07	  -3.852969E+06	   1.244707E+08	   8.508235E+03	   3.018555E-02	   5.430563E-04	   1.826488E-03	  -6.494110E-06	   3.120450E-04	  -2.831128E-05	   2.513431E-01	   1.196992E-02	   1.400921E-02	  -1.429737E-04	   2.585089E-03	  -4.402711E-04	   1.025268E+00	   1.171993E-01	   3.906292E-02	  -1.392083E-03	   1.037703E-02	  -3.470888E-03	  -5.963532E+05	   0.000000E+00	   4.647487E+04	   0.000000E+00	   2.096715E+07	   0.000000E+00	   0.000000E+00	   0.000000E+00	   8.070754E+07	  -3.246525E+04	   1.559970E+06	   0.000000E+00	  -2.951618E+06	  -2.369404E+05	  -9.435265E+03	  -3.814509E+06	   1.017446E+08	   9.018335E-09
    0.2500	  -2.185466E-03	  -3.582145E+06	  -2.059061E+05	   8.074361E+07	  -3.317864E+06	   1.249559E+08	   9.656950E+03	   3.340729E-02	   7.013340E-04	   2.004593E-03	  -8.384256E-06	   3.451673E-04	  -3.409292E-05	   2.641150E-01	   1.328807E-02	   1.448262E-02	  -1.587191E-04	   2.714223E-03	  -4.848980E-04	   1.020334E+00	   1.011437E-01	   3.668726E-02	  -1.201992E-03	   1.030561E-02	  -3.780972E-03	  -5.982754E+05	   0.000000E+00	   4.729161E+04	   0.000000E+00	   2.093538E+07	   0.000000E+00	   0.000000E+00	   0.000000E+00	   8.070748E+07	  -4.191444E+04	   1.725555E+06	   0.000000E+00	  -2.948953E+06	  -2.042559E+05	  -8.863277E+03	  -3.268984E+06	   1.020772E+08	   9.824019E-09
    0.2625	  -4.294868E-03	  -3.574254E+06	  -1.690714E+05	   8.074486E+07	  -2.712778E+06	   1.252175E+08	   1.092328E+04	   3.678826E-02	   8.748028E-04	   2.188430E-03	  -1.045594E-05	   3.798978E-04	  -4.045864E-05	   2.768160E-01	   1.441328E-02	   1.492653E-02	  -1.721420E-04	   2.842359E-03	  -5.341583E-04	   1.012067E+00	   8.296511E-02	   3.428346E-02	  -9.867321E-04	   1.019740E-02	  -4.145280E-03	  -5.990441E+05	   0.000000E+00	   4.809143E+04	   0.000000E+00	   2.088588E+07	   0.000000E+00	   0.000000E+00	   0.000000E+00	   8.070742E+07	  -5.227119E+04	   1.899179E+06	   0.000000E+00	  -2.938247E+06	  -1.672657E+05	  -8.284539E+03	  -2.652615E+06	   1.021950E+08	   1.077060E-08
    0.2750	  -6.404269E-03	  -3.563991E+06	  -1.318469E+05	   8.074611E+07	  -2.105468E+06	   1.254468E+08	   1.231602E+04	   4.032720E-02	   1.060941E-03	   2.377627E-03	  -1.267883E-05	   4.162199E-04	  -4.746837E-05	   2.893926E-01	   1.533332E-02	   1.534027E-02	  -1.830924E-04	   2.968909E-03	  -5.882770E-04	   1.002607E+00	   6.457840E-02	   3.193241E-02	  -7.688993E-04	   1.007509E-02	  -4.467889E-03	  -5.998129E+05	   0.000000E+00	   4.889124E+04	   0.000000E+00	   2.083638E+07	   0.000000E+00	   0.000000E+00	   0.000000E+00	   8.070735E+07	  -6.338380E+04	   2.080760E+06	   0.000000E+00	  -2.925152E+06	  -1.299092E+05	  -7.718562E+03	  -2.033328E+06	   1.022718E+08	   1.160882E-08
    0.2875	  -8.513671E-03	  -3.551535E+06	  -9.812095E+04	   8.074735E+07	  -1.563268E+06	   1.256461E+08	   1.382582E+04	   4.402268E-02	   1.257221E-03	   2.571816E-03	  -1.502241E-05	   4.541151E-04	  -5.517704E-05	   3.018471E-01	   1.605694E-02	   1.572501E-02	  -1.916732E-04	   3.093882E-03	  -6.461199E-04	   9.920506E-01	   4.786985E-02	   2.963983E-02	  -5.707375E-04	   9.939836E-03	  -4.647103E-03	  -6.005816E+05	   0.000000E+00	   4.969105E+04	   0.000000E+00	   2.078688E+07	   0.000000E+00	   0.000000E+00	   0.000000E+00	   8.070729E+07	  -7.509980E+04	   2.270205E+06	   0.000000E+00	  -2.909849E+06	  -9.607437E+04	  -7.166726E+03	  -1.478620E+06	   1.023100E+08	   1.207447E-08
    0.3000	  -1.062307E-02	  -3.537389E+06	  -7.127450E+04	   8.074857E+07	  -1.145003E+06	   1.258232E+08	   1.542432E+04	   4.787296E-02	   1.461359E-03	   2.770636E-03	  -1.745910E-05	   4.935612E-04	  -6.361768E-05	   3.141681E-01	   1.661232E-02	   1.608151E-02	  -1.982204E-04	   3.217137E-03	  -7.052566E-04	   9.806490E-01	   3.447578E-02	   2.740717E-02	  -4.115318E-04	   9.794637E-03	  -4.600515E-03	  -6.013503E+05	   0.000000E+00	   5.049086E+04	   0.000000E+00	   2.073738E+07	   0.000000E+00	   0.000000E+00	   0.000000E+00	   8.070722E+07	  -8.728128E+04	   2.467404E+06	   0.000000E+00	  -2.892844E+06	  -6.913916E+04	  -6.629377E+03	  -1.047448E+06	   1.023176E+08	   1.195343E-08
    0.3125	  -1.273247E-02	  -3.522508E+06	  -5.379553E+04	   8.074978E+07	  -8.942476E+05	   1.259937E+08	   1.706799E+04	   5.187635E-02	   1.671538E-03	   2.973739E-03	  -1.996685E-05	   5.345365E-04	  -7.278738E-05	   3.263487E-01	   1.704313E-02	   1.641049E-02	  -2.032566E-04	   3.338597E-03	  -7.623595E-04	   9.688730E-01	   2.559645E-02	   2.525120E-02	  -3.054173E-04	   9.645070E-03	  -4.279839E-03	  -6.021190E+05	   0.000000E+00	   5.129068E+04	   0.000000E+00	   2.068788E+07	   0.000000E+00	   0.000000E+00	   0.000000E+00	   8.070715E+07	  -9.981798E+04	   2.672247E+06	   0.000000E+00	  -2.875091E+06	  -5.158648E+04	  -6.110559E+03	  -7.834818E+05	   1.023103E+08	   1.112023E-08
    0.3250	  -1.484188E-02	  -3.508002E+06	  -4.702860E+04	   8.075097E+07	  -8.348559E+05	   1.261761E+08	   1.870392E+04	   5.603110E-02	   1.886561E-03	   3.180788E-03	  -2.253104E-05	   5.770187E-04	  -8.263870E-05	   3.383893E-01	   1.740248E-02	   1.671304E-02	  -2.074188E-04	   3.458260E-03	  -8.137181E-04	   9.572701E-01	   2.187590E-02	   2.318238E-02	  -2.599659E-04	   9.497618E-03	  -3.688009E-03	  -6.028878E+05	   0.000000E+00	   5.209049E+04	   0.000000E+00	   2.063838E+07	   0.000000E+00	   0.000000E+00	   0.000000E+00	   8.070709E+07	  -1.126368E+05	   2.884622E+06	   0.000000E+00	  -2.857706E+06	  -4.475434E+04	  -5.612791E+03	  -7.106228E+05	   1.023067E+08	   9.582492E-09
    0.3375	  -1.695128E-02	  -3.495020E+06	  -5.091366E+04	   8.075214E+07	  -9.658861E+05	   1.263893E+08	   2.027960E+04	   6.033547E-02	   2.105929E-03	   3.391460E-03	  -2.514537E-05	   6.209853E-04	  -9.307967E-05	   3.502956E-01	   1.774693E-02	   1.699028E-02	  -2.113854E-04	   3.576196E-03	  -8.559875E-04	   9.464031E-01	   2.328003E-02	   2.119809E-02	  -2.747682E-04	   9.358947E-03	  -2.878947E-03	  -6.036565E+05	   0.000000E+00	   5.289030E+04	   0.000000E+00	   2.058888E+07	   0.000000E+00	   0.000000E+00	   0.000000E+00	   8.070702E+07	  -1.257063E+05	   3.104420E+06	   0.000000E+00	  -2.841832E+06	  -4.857550E+04	  -5.135439E+03	  -8.279270E+05	   1.023259E+08	   7.480331E-09
    0.3500	  -1.906068E-02	  -3.484634E+06	  -6.405756E+04	   8.075329E+07	  -1.263005E+06	   1.266513E+08	   2.175182E+04	   6.478786E-02	   2.329826E-03	   3.605445E-03	  -2.781178E-05	   6.664158E-04	  -1.039817E-04	   3.620799E-01	   1.812837E-02	   1.724323E-02	  -2.157799E-04	   3.692552E-03	  -8.868144E-04	   9.367983E-01	   2.913056E-02	   1.929296E-02	  -3.418285E-04	   9.235285E-03	  -1.950118E-03	  -6.044252E+05	   0.000000E+00	   5.369011E+04	   0.000000E+00	   2.053938E+07	   0.000000E+00	   0.000000E+00	   0.000000E+00	   8.070694E+07	  -1.390362E+05	   3.331535E+06	   0.000000E+00	  -2.828543E+06	  -6.164995E+04	  -4.677205E+03	  -1.111017E+06	   1.023858E+08	   5.066980E-09
    0.3625	  -2.117008E-02	  -3.477747E+06	  -8.385613E+04	   8.075442E+07	  -1.680539E+06	   1.269768E+08	   2.309463E+04	   6.938686E-02	   2.559018E-03	   3.822444E-03	  -3.053921E-05	   7.132917E-04	  -1.151954E-04	   3.737601E-01	   1.858715E-02	   1.747286E-02	  -2.210887E-04	   3.807543E-03	  -9.053324E-04	   9.288986E-01	   3.816535E-02	   1.745765E-02	  -4.462786E-04	   9.131876E-03	  -1.018294E-03	  -6.051939E+05	   0.000000E+00	   5.448993E+04	   0.000000E+00	   2.048988E+07	   0.000000E+00	   0.000000E+00	   0.000000E+00	   8.070687E+07	  -1.526711E+05	   3.565877E+06	   0.000000E+00	  -2.818740E+06	  -8.136802E+04	  -4.235833E+03	  -1.514142E+06	   1.025014E+08	   2.645849E-09
    0.3750	  -2.327948E-02	  -3.475278E+06	  -1.067168E+05	   8.075555E+07	  -2.155386E+06	   1.273819E+08	   2.430228E+04	   7.413131E-02	   2.794666E-03	   4.042173E-03	  -3.334138E-05	   7.615976E-04	  -1.265695E-04	   3.853583E-01	   1.914696E-02	   1.767997E-02	  -2.275990E-04	   3.921431E-03	  -9.122423E-04	   9.231483E-01	   4.864624E-02	   1.568866E-02	  -5.676476E-04	   9.053960E-03	  -1.914432E-04	  -6.059626E+05	   0.000000E+00	   5.528974E+04	   0.000000E+00	   2.044038E+07	   0.000000E+00	   0.000000E+00	   0.000000E+00	   8.070680E+07	  -1.666797E+05	   3.807367E+06	   0.000000E+00	  -2.813337E+06	  -1.041337E+05	  -3.810478E+03	  -1.974110E+06	   1.026887E+08	   4.974655E-10
    0.3875	  -2.538889E-02	  -3.477392E+06	  -1.285537E+05	   8.075666E+07	  -2.616084E+06	   1.278686E+08	   2.538728E+04	   7.902035E-02	   3.038084E-03	   4.264353E-03	  -3.623395E-05	   8.113218E-04	  -1.379692E-04	   3.969016E-01	   1.981013E-02	   1.786537E-02	  -2.353420E-04	   4.034544E-03	  -9.095250E-04	   9.196311E-01	   5.859590E-02	   1.397818E-02	  -6.826390E-04	   9.002545E-03	   4.534863E-04	  -6.067313E+05	   0.000000E+00	   5.608955E+04	   0.000000E+00	   2.039088E+07	   0.000000E+00	   0.000000E+00	   0.000000E+00	   8.070673E+07	  -1.811402E+05	   4.055948E+06	   0.000000E+00	  -2.812496E+06	  -1.258605E+05	  -3.399252E+03	  -2.419371E+06	   1.029498E+08	  -1.178235E-09
    0.4000	  -2.749829E-02	  -3.484200E+06	  -1.451564E+05	   8.075776E+07	  -2.989313E+06	   1.284388E+08	   2.637489E+04	   8.405347E-02	   3.290470E-03	   4.488719E-03	  -3.923116E-05	   8.624566E-04	  -1.492897E-04	   4.084151E-01	   2.055709E-02	   1.802976E-02	  -2.440865E-04	   4.147182E-03	  -8.999183E-04	   9.184001E-01	   6.597579E-02	   1.233482E-02	  -7.672251E-04	   8.978258E-03	   8.900490E-04	  -6.075001E+05	   0.000000E+00	   5.688937E+04	   0.000000E+00	   2.034138E+07	   0.000000E+00	   0.000000E+00	   0.000000E+00	   8.070665E+07	  -1.961238E+05	   4.311580E+06	   0.000000E+00	  -2.816323E+06	  -1.423403E+05	  -3.004233E+03	  -2.776543E+06	   1.032867E+08	  -2.312542E-09
    0.4125	  -2.960769E-02	  -3.495381E+06	  -1.526932E+05	   8.075884E+07	  -3.208693E+06	   1.290869E+08	   2.729384E+04	   8.923046E-02	   3.552618E-03	   4.715014E-03	  -4.234259E-05	   9.149982E-04	  -1.604607E-04	   4.199255E-01	   2.134641E-02	   1.817405E-02	  -2.533385E-04	   4.259664E-03	  -8.861649E-04	   9.192974E-01	   6.892968E-02	   1.076279E-02	  -7.995159E-04	   8.979237E-03	   1.136507E-03	  -6.082688E+05	   0.000000E+00	   5.768918E+04	   0.000000E+00	   2.029188E+07	   0.000000E+00	   0.000000E+00	   0.000000E+00	   8.070658E+07	  -2.116784E+05	   4.574244E+06	   0.000000E+00	  -2.824493E+06	  -1.497468E+05	  -2.626430E+03	  -2.979226E+06	   1.036935E+08	  -2.952905E-09
    0.4250	  -3.171709E-02	  -3.510187E+06	  -1.481733E+05	   8.075991E+07	  -3.222896E+06	   1.297998E+08	   2.816947E+04	   9.455146E-02	   3.824680E-03	   4.942991E-03	  -4.557008E-05	   9.689464E-04	  -1.714445E-04	   4.314549E-01	   2.211874E-02	   1.829915E-02	  -2.623883E-04	   4.372258E-03	  -8.705037E-04	   9.219607E-01	   6.600690E-02	   9.257924E-03	  -7.623883E-04	   9.001214E-03	   1.252153E-03	  -6.090375E+05	   0.000000E+00	   5.848899E+04	   0.000000E+00	   2.024238E+07	   0.000000E+00	   0.000000E+00	   0.000000E+00	   8.070650E+07	  -2.278132E+05	   4.843942E+06	   0.000000E+00	  -2.836254E+06	  -1.450973E+05	  -2.264838E+03	  -2.976127E+06	   1.041573E+08	  -3.253382E-09
    0.4375	  -3.382649E-02	  -3.527823E+06	  -1.298049E+05	   8.076096E+07	  -3.001623E+06	   1.305641E+08	   2.901634E+04	   1.000168E-01	   4.105969E-03	   5.172416E-03	  -4.890548E-05	   1.024304E-03	  -1.822254E-04	   4.430210E-01	   2.280231E-02	   1.840588E-02	  -2.703749E-04	   4.485177E-03	  -8.541787E-04	   9.259985E-01	   5.633756E-02	   7.831039E-03	  -6.455597E-04	   9.039554E-03	   1.315351E-03	  -6.098062E+05	   0.000000E+00	   5.928880E+04	   0.000000E+00	   2.019288E+07	   0.000000E+00	   0.000000E+00	   0.000000E+00	   8.070642E+07	  -2.444875E+05	   5.120685E+06	   0.000000E+00	  -2.850809E+06	  -1.266100E+05	  -1.922066E+03	  -2.737053E+06	   1.046647E+08	  -3.417583E-09
    0.4500	  -3.593589E-02	  -3.547222E+06	  -9.725754E+04	   8.076200E+07	  -2.539824E+06	   1.313621E+08	   2.983581E+04	   1.056271E-01	   4.394853E-03	   5.403066E-03	  -5.232932E-05	   1.081076E-03	  -1.927973E-04	   4.546369E-01	   2.332014E-02	   1.849528E-02	  -2.763742E-04	   4.598579E-03	  -8.373473E-04	   9.308879E-01	   3.976161E-02	   6.487692E-03	  -4.471203E-04	   9.088070E-03	   1.402636E-03	  -6.105749E+05	   0.000000E+00	   6.008862E+04	   0.000000E+00	   2.014339E+07	   0.000000E+00	   0.000000E+00	   0.000000E+00	   8.070634E+07	  -2.616039E+05	   5.404501E+06	   0.000000E+00	  -2.867087E+06	  -9.396564E+04	  -1.599451E+03	  -2.257121E+06	   1.051977E+08	  -3.644373E-09
    0.4625	  -3.804529E-02	  -3.567286E+06	  -5.173950E+04	   8.076301E+07	  -1.858637E+06	   1.321754E+08	   3.061673E+04	   1.113829E-01	   4.688750E-03	   5.634731E-03	  -5.581069E-05	   1.139270E-03	  -2.031504E-04	   4.663088E-01	   2.359857E-02	   1.856842E-02	  -2.794993E-04	   4.712539E-03	  -8.192331E-04	   9.360913E-01	   1.686915E-02	   5.232398E-03	  -1.740219E-04	   9.140401E-03	   1.569740E-03	  -6.113436E+05	   0.000000E+00	   6.088843E+04	   0.000000E+00	   2.009389E+07	   0.000000E+00	   0.000000E+00	   0.000000E+00	   8.070627E+07	  -2.790079E+05	   5.695422E+06	   0.000000E+00	  -2.883989E+06	  -4.838329E+04	  -1.298082E+03	  -1.557701E+06	   1.057380E+08	  -4.078551E-09
    0.4750	  -4.015470E-02	  -3.586907E+06	   4.084417E+03	   8.076401E+07	  -1.003663E+06	   1.329853E+08	   3.133940E+04	   1.172850E-01	   4.984219E-03	   5.867214E-03	  -5.930834E-05	   1.198892E-03	  -2.132618E-04	   4.780373E-01	   2.357516E-02	   1.862643E-02	  -2.789968E-04	   4.827066E-03	  -7.985034E-04	   9.410662E-01	  -1.103779E-02	   4.060637E-03	   1.583625E-04	   9.190130E-03	   1.839547E-03	  -6.121124E+05	   0.000000E+00	   6.168824E+04	   0.000000E+00	   2.004439E+07	   0.000000E+00	   0.000000E+00	   0.000000E+00	   8.070619E+07	  -2.964933E+05	   5.993484E+06	   0.000000E+00	  -2.900407E+06	   7.462565E+03	  -1.016865E+03	  -6.846722E+05	   1.062668E+08	  -4.779583E-09
    0.4875	  -4.226410E-02	  -3.605202E+06	   6.638472E+04	   8.076498E+07	  -3.959887E+04	   1.337774E+08	   3.198143E+04	   1.233341E-01	   5.277157E-03	   6.100332E-03	  -6.277300E-05	   1.259950E-03	  -2.230905E-04	   4.898160E-01	   2.320573E-02	   1.867031E-02	  -2.743321E-04	   4.942088E-03	  -7.737514E-04	   9.453789E-01	  -4.208490E-02	   2.964545E-03	   5.278763E-04	   9.232113E-03	   2.198817E-03	  -6.128811E+05	   0.000000E+00	   6.248805E+04	   0.000000E+00	   1.999489E+07	   0.000000E+00	   0.000000E+00	   0.000000E+00	   8.070611E+07	  -3.138138E+05	   6.298720E+06	   0.000000E+00	  -2.915458E+06	   6.973515E+04	  -7.539031E+02	   2.969579E+05	   1.067698E+08	  -5.713065E-09
    0.5000	  -4.437350E-02	  -3.620817E+06	   1.305319E+05	   8.076594E+07	   9.557368E+05	   1.345286E+08	   3.252400E+04	   1.295307E-01	   5.563060E-03	   6.333916E-03	  -6.615052E-05	   1.322448E-03	  -2.325804E-04	   5.016351E-01	   2.246972E-02	   1.870096E-02	  -2.652540E-04	   5.057484E-03	  -7.439626E-04	   9.483717E-01	  -7.400568E-02	   1.949529E-03	   9.077140E-04	   9.258586E-03	   2.617336E-03	  -6.136498E+05	   0.000000E+00	   6.328787E+04	   0.000000E+00	   1.994539E+07	   0.000000E+00	   0.000000E+00	   0.000000E+00	   8.070603E+07	  -3.306986E+05	   6.611160E+06	   0.000000E+00	  -2.927791E+06	   1.338009E+05	  -5.104981E+02	   1.309058E+06	   1.072238E+08	  -6.800490E-09