
Predictions were generated on 06-Jul-2022 at 19:52:19 using OpenFAST, compiled as a 64-bit application using double precision at commit v3.1.0-243-ge6028eae-dirty
 linked with  NWTC Subroutine Library; ElastoDyn; InflowWind; AeroDyn; ServoDyn

Description from the FAST input file: FAST Certification Test #13: WindPACT 1.5 MW Baseline with many DOFs with VS and VP and FF turbulence.

Time	Wind1VelX	Wind1VelY	Wind1VelZ	BldPitch2	IPDefl1	IPDefl2	TwstDefl1	TwstDefl2	TwstDefl3	RootMxb2	RootMyb2	RootMzb2	LSShftFys	LSShftFzs	LSSTipMys	LSSTipMzs	YawBrTDxp	YawBrTDyp	YawBrMxn	YawBrMyn	YawBrMzn	RtSkew
(s)	(m/s)	(m/s)	(m/s)	(deg)	(m)	(m)	(deg)	(deg)	(deg)	(kN-m)	(kN-m)	(kN-m)	(kN)	(kN)	(kN-m)	(kN-m)	(m)	(m)	(kN-m)	(kN-m)	(kN-m)	(deg)
    0.0000	 1.408E+01	-3.656E+00	-3.207E-01	 7.500E+00	 0.000E+00	 0.000E+00	 0.000E+00	 0.000E+00	 0.000E+00	 1.003E+02	 1.275E+01	 5.357E-15	 9.542E-02	-2.298E+02	 1.141E+01	-1.807E+01	 0.000E+00	-0.000E+00	-1.537E+00	-7.670E+02	-1.829E+01	 6.369E+00
    0.0500	 1.419E+01	-3.069E+00	-6.618E-02	 7.500E+00	-5.436E-02	-6.973E-02	 0.000E+00	 0.000E+00	 0.000E+00	 2.990E+02	 1.709E+02	 4.655E+00	 3.010E+00	-2.404E+02	 7.929E+01	-2.350E+01	-1.784E-04	-2.553E-04	 5.595E+02	-7.391E+02	-8.777E+01	 8.086E+00
    0.1000	 1.399E+01	-3.026E+00	 6.324E-01	 7.500E+00	-1.670E-01	-2.159E-01	 0.000E+00	 0.000E+00	 0.000E+00	 4.546E+02	 4.444E+02	 3.370E+00	-1.879E-01	-2.608E+02	 1.652E+02	-5.617E+00	 4.399E-05	-1.187E-03	 7.908E+02	-7.306E+02	-7.897E+01	 1.043E+01
    0.1500	 1.362E+01	-3.464E+00	 9.863E-01	 7.500E+00	-2.608E-01	-3.379E-01	 0.000E+00	 0.000E+00	 0.000E+00	 5.296E+02	 7.687E+02	 1.762E+00	-4.059E+00	-2.798E+02	 2.038E+02	 3.724E+01	 2.277E-03	-2.842E-03	 8.054E+02	-7.463E+02	-2.085E+01	 1.194E+01
    0.2000	 1.387E+01	-3.389E+00	 1.016E+00	 7.500E+00	-3.188E-01	-4.007E-01	 0.000E+00	 0.000E+00	 0.000E+00	 5.286E+02	 1.047E+03	 1.344E+00	-3.626E+00	-2.888E+02	 1.886E+02	 8.545E+01	 7.970E-03	-4.958E-03	 7.223E+02	-7.596E+02	 3.611E+01	 1.260E+01
    0.2500	 1.388E+01	-3.561E+00	 2.512E-01	 7.500E+00	-3.687E-01	-4.260E-01	 0.000E+00	 0.000E+00	 0.000E+00	 4.720E+02	 1.233E+03	 1.888E+00	 2.338E+00	-2.873E+02	 1.652E+02	 1.290E+02	 1.784E-02	-7.181E-03	 6.359E+02	-7.365E+02	 6.699E+01	 1.201E+01
    0.3000	 1.360E+01	-3.701E+00	 1.724E-01	 7.500E+00	-4.273E-01	-4.339E-01	 0.000E+00	 0.000E+00	 0.000E+00	 3.838E+02	 1.321E+03	 2.523E+00	 1.060E+01	-2.797E+02	 1.511E+02	 1.585E+02	 3.200E-02	-9.386E-03	 6.236E+02	-6.931E+02	 6.681E+01	 1.005E+01
    0.3500	 1.353E+01	-2.951E+00	 2.568E-01	 7.500E+00	-4.774E-01	-4.157E-01	 0.000E+00	 0.000E+00	 0.000E+00	 2.676E+02	 1.337E+03	 3.691E+00	 1.474E+01	-2.708E+02	 1.026E+02	 1.680E+02	 5.031E-02	-1.173E-02	 6.687E+02	-6.984E+02	 5.582E+01	 8.390E+00
    0.4000	 1.336E+01	-3.225E+00	 4.225E-02	 7.500E+00	-4.913E-01	-3.579E-01	 0.000E+00	 0.000E+00	 0.000E+00	 1.243E+02	 1.307E+03	 5.819E+00	 1.017E+01	-2.637E+02	-1.460E+00	 1.664E+02	 7.247E-02	-1.444E-02	 7.105E+02	-7.792E+02	 6.640E+01	 7.344E+00
    0.4500	 1.289E+01	-3.108E+00	 6.244E-01	 7.500E+00	-4.646E-01	-2.740E-01	 0.000E+00	 0.000E+00	 0.000E+00	-1.922E+01	 1.246E+03	 7.992E+00	-1.236E+00	-2.592E+02	-1.143E+02	 1.494E+02	 9.795E-02	-1.752E-02	 7.249E+02	-8.791E+02	 8.973E+01	 6.769E+00
    0.5000	 1.285E+01	-3.082E+00	 5.616E-01	 7.500E+00	-4.207E-01	-1.997E-01	 0.000E+00	 0.000E+00	 0.000E+00	-1.179E+02	 1.162E+03	 8.807E+00	-1.210E+01	-2.569E+02	-1.775E+02	 1.176E+02	 1.260E-01	-2.084E-02	 7.292E+02	-9.258E+02	 9.704E+01	 7.405E+00
    0.5500	 1.312E+01	-3.668E+00	 3.619E-01	 7.500E+00	-3.869E-01	-1.638E-01	 0.000E+00	 0.000E+00	 0.000E+00	-1.462E+02	 1.061E+03	 8.165E+00	-1.587E+01	-2.559E+02	-1.565E+02	 8.201E+01	 1.559E-01	-2.424E-02	 7.359E+02	-8.769E+02	 7.385E+01	 7.974E+00
    0.6000	 1.317E+01	-3.542E+00	 5.765E-01	 7.500E+00	-3.731E-01	-1.669E-01	 0.000E+00	 0.000E+00	 0.000E+00	-1.151E+02	 9.608E+02	 6.913E+00	-1.121E+01	-2.553E+02	-7.782E+01	 3.762E+01	 1.866E-01	-2.775E-02	 7.276E+02	-7.608E+02	 1.236E+01	 7.845E+00
    0.6500	 1.250E+01	-3.323E+00	 8.584E-01	 7.500E+00	-3.719E-01	-1.898E-01	 0.000E+00	 0.000E+00	 0.000E+00	-5.933E+01	 8.961E+02	 5.824E+00	-2.265E+00	-2.550E+02	 1.358E+01	-2.390E+01	 2.172E-01	-3.144E-02	 6.911E+02	-6.337E+02	-7.828E+01	 7.211E+00
    0.7000	 1.300E+01	-3.248E+00	-4.771E-01	 7.500E+00	-3.759E-01	-2.122E-01	 0.000E+00	 0.000E+00	 0.000E+00	-1.450E+01	 8.896E+02	 5.257E+00	 5.006E+00	-2.558E+02	 9.251E+01	-8.026E+01	 2.469E-01	-3.534E-02	 6.493E+02	-5.329E+02	-1.556E+02	 6.636E+00
    0.7500	 1.331E+01	-3.774E+00	 3.999E-02	 7.500E+00	-3.861E-01	-2.242E-01	 0.000E+00	 0.000E+00	 0.000E+00	-4.782E+00	 9.295E+02	 5.230E+00	 6.848E+00	-2.576E+02	 1.488E+02	-8.167E+01	 2.752E-01	-3.923E-02	 6.427E+02	-4.694E+02	-1.604E+02	 6.903E+00
    0.8000	 1.248E+01	-3.906E+00	 1.850E-01	 7.500E+00	-4.070E-01	-2.227E-01	 0.000E+00	 0.000E+00	 0.000E+00	-4.095E+01	 9.911E+02	 5.611E+00	 3.543E+00	-2.589E+02	 1.719E+02	-3.051E+01	 3.022E-01	-4.278E-02	 6.835E+02	-4.395E+02	-9.864E+01	 7.234E+00
    0.8500	 1.230E+01	-3.268E+00	 2.021E-01	 7.500E+00	-4.346E-01	-2.019E-01	 0.000E+00	 0.000E+00	 0.000E+00	-1.258E+02	 1.048E+03	 6.488E+00	-2.280E+00	-2.586E+02	 1.776E+02	 3.014E+01	 3.278E-01	-4.572E-02	 7.420E+02	-4.140E+02	-2.170E+01	 8.032E+00
    0.9000	 1.263E+01	-2.918E+00	-2.111E-01	 7.500E+00	-4.556E-01	-1.578E-01	 0.000E+00	 0.000E+00	 0.000E+00	-2.493E+02	 1.073E+03	 7.991E+00	-8.053E+00	-2.573E+02	 2.048E+02	 7.557E+01	 3.523E-01	-4.797E-02	 7.739E+02	-3.548E+02	 3.995E+01	 8.508E+00
    0.9500	 1.324E+01	-2.355E+00	-2.625E-01	 7.500E+00	-4.585E-01	-9.689E-02	 0.000E+00	 0.000E+00	 0.000E+00	-3.833E+02	 1.064E+03	 9.821E+00	-1.197E+01	-2.566E+02	 2.509E+02	 1.059E+02	 3.753E-01	-4.971E-02	 7.605E+02	-2.748E+02	 8.263E+01	 7.990E+00
    1.0000	 1.352E+01	-2.257E+00	-2.899E-01	 7.500E+00	-4.425E-01	-3.701E-02	 0.000E+00	 0.000E+00	 0.000E+00	-4.904E+02	 1.039E+03	 1.115E+01	-1.353E+01	-2.580E+02	 2.879E+02	 1.303E+02	 3.964E-01	-5.128E-02	 7.247E+02	-2.161E+02	 1.134E+02	 7.198E+00
    1.0500	 1.349E+01	-1.649E+00	 4.344E-02	 7.500E+00	-4.171E-01	-5.563E-04	 0.000E+00	 0.000E+00	 0.000E+00	-5.389E+02	 1.015E+03	 1.146E+01	-1.333E+01	-2.615E+02	 3.002E+02	 1.492E+02	 4.153E-01	-5.291E-02	 7.038E+02	-2.012E+02	 1.331E+02	 6.177E+00
    1.1000	 1.371E+01	-1.576E+00	 2.717E-01	 7.500E+00	-3.926E-01	-6.023E-04	 0.000E+00	 0.000E+00	 0.000E+00	-5.186E+02	 9.991E+02	 1.086E+01	-1.210E+01	-2.647E+02	 2.785E+02	 1.582E+02	 4.315E-01	-5.465E-02	 7.174E+02	-2.316E+02	 1.381E+02	 6.658E+00
    1.1500	 1.443E+01	-1.601E+00	 3.356E-01	 7.500E+00	-3.721E-01	-3.174E-02	 0.000E+00	 0.000E+00	 0.000E+00	-4.467E+02	 1.006E+03	 9.917E+00	-1.021E+01	-2.645E+02	 2.269E+02	 1.438E+02	 4.447E-01	-5.632E-02	 7.532E+02	-2.856E+02	 1.163E+02	 7.160E+00
    1.2000	 1.414E+01	-1.214E+00	 1.564E-01	 7.500E+00	-3.532E-01	-7.559E-02	 0.000E+00	 0.000E+00	 0.000E+00	-3.592E+02	 1.031E+03	 9.063E+00	-8.318E+00	-2.604E+02	 1.928E+02	 1.182E+02	 4.546E-01	-5.761E-02	 7.809E+02	-3.062E+02	 8.346E+01	 7.260E+00
    1.2500	 1.381E+01	-1.862E+00	-2.785E-01	 7.500E+00	-3.327E-01	-1.126E-01	 0.000E+00	 0.000E+00	 0.000E+00	-2.905E+02	 1.061E+03	 8.625E+00	-6.816E+00	-2.536E+02	 2.116E+02	 1.016E+02	 4.611E-01	-5.828E-02	 7.780E+02	-2.590E+02	 6.214E+01	 6.948E+00
    1.3000	 1.343E+01	-1.698E+00	-7.454E-01	 7.500E+00	-3.108E-01	-1.314E-01	 0.000E+00	 0.000E+00	 0.000E+00	-2.593E+02	 1.092E+03	 8.742E+00	-5.681E+00	-2.471E+02	 2.524E+02	 1.044E+02	 4.641E-01	-5.827E-02	 7.515E+02	-1.848E+02	 6.218E+01	 6.543E+00
    1.3500	 1.249E+01	-1.676E+00	-3.082E-01	 7.500E+00	-2.910E-01	-1.312E-01	 0.000E+00	 0.000E+00	 0.000E+00	-2.663E+02	 1.124E+03	 9.268E+00	-5.194E+00	-2.440E+02	 2.692E+02	 1.102E+02	 4.636E-01	-5.770E-02	 7.248E+02	-1.455E+02	 6.708E+01	 6.224E+00
    1.4000	 1.295E+01	-9.714E-01	-5.993E-01	 7.500E+00	-2.769E-01	-1.178E-01	 0.000E+00	 0.000E+00	 0.000E+00	-3.002E+02	 1.154E+03	 1.008E+01	-5.785E+00	-2.462E+02	 2.576E+02	 1.048E+02	 4.596E-01	-5.674E-02	 7.175E+02	-1.617E+02	 6.350E+01	 5.912E+00
    1.4500	 1.280E+01	-1.390E+00	-5.593E-01	 7.500E+00	-2.663E-01	-9.859E-02	 0.000E+00	 0.000E+00	 0.000E+00	-3.441E+02	 1.177E+03	 1.091E+01	-7.307E+00	-2.531E+02	 2.313E+02	 9.253E+01	 4.521E-01	-5.551E-02	 7.322E+02	-2.219E+02	 5.545E+01	 5.625E+00
    1.5000	 1.269E+01	-2.016E+00	-2.374E-01	 7.500E+00	-2.544E-01	-8.161E-02	 0.000E+00	 0.000E+00	 0.000E+00	-3.771E+02	 1.194E+03	 1.166E+01	-8.853E+00	-2.611E+02	 2.083E+02	 5.958E+01	 4.413E-01	-5.399E-02	 7.528E+02	-2.924E+02	 2.699E+01	 5.613E+00
    1.5500	 1.203E+01	-1.928E+00	-3.128E-01	 7.500E+00	-2.379E-01	-7.573E-02	 0.000E+00	 0.000E+00	 0.000E+00	-3.815E+02	 1.202E+03	 1.209E+01	-8.976E+00	-2.659E+02	 1.880E+02	 5.304E+00	 4.277E-01	-5.209E-02	 7.595E+02	-3.497E+02	-2.681E+01	 5.575E+00
    1.6000	 1.232E+01	-1.893E+00	-5.582E-01	 7.500E+00	-2.173E-01	-8.969E-02	 0.000E+00	 0.000E+00	 0.000E+00	-3.474E+02	 1.208E+03	 1.210E+01	-7.354E+00	-2.656E+02	 1.789E+02	-4.830E+01	 4.114E-01	-4.973E-02	 7.490E+02	-3.720E+02	-8.553E+01	 5.075E+00
    1.6500	 1.293E+01	-1.727E+00	-1.196E+00	 7.500E+00	-1.951E-01	-1.265E-01	 0.000E+00	 0.000E+00	 0.000E+00	-2.768E+02	 1.238E+03	 1.169E+01	-4.944E+00	-2.611E+02	 1.891E+02	-1.068E+02	 3.925E-01	-4.694E-02	 7.287E+02	-3.548E+02	-1.521E+02	 4.745E+00
    1.7000	 1.297E+01	-1.521E+00	-1.251E+00	 7.500E+00	-1.729E-01	-1.816E-01	 0.000E+00	 0.000E+00	 0.000E+00	-1.827E+02	 1.314E+03	 1.109E+01	-3.815E+00	-2.556E+02	 2.335E+02	-1.650E+02	 3.712E-01	-4.385E-02	 7.127E+02	-3.009E+02	-2.147E+02	 4.546E+00
    1.7500	 1.142E+01	-1.868E+00	-1.401E+00	 7.500E+00	-1.526E-01	-2.465E-01	 0.000E+00	 0.000E+00	 0.000E+00	-8.276E+01	 1.424E+03	 1.035E+01	-5.545E+00	-2.521E+02	 3.132E+02	-2.141E+02	 3.480E-01	-4.067E-02	 7.062E+02	-2.257E+02	-2.586E+02	 4.034E+00
    1.8000	 1.127E+01	-1.736E+00	-1.587E+00	 7.500E+00	-1.361E-01	-3.128E-01	 0.000E+00	 0.000E+00	 0.000E+00	 7.291E+00	 1.536E+03	 9.576E+00	-9.632E+00	-2.520E+02	 4.012E+02	-2.443E+02	 3.234E-01	-3.759E-02	 7.145E+02	-1.611E+02	-2.758E+02	 4.033E+00
    1.8500	 1.129E+01	-1.609E+00	-9.246E-01	 7.500E+00	-1.224E-01	-3.713E-01	 0.000E+00	 0.000E+00	 0.000E+00	 7.602E+01	 1.626E+03	 9.029E+00	-1.378E+01	-2.555E+02	 4.729E+02	-2.546E+02	 2.983E-01	-3.469E-02	 7.362E+02	-1.263E+02	-2.736E+02	 5.047E+00
    1.9000	 1.186E+01	-1.778E+00	-1.488E+00	 7.500E+00	-1.103E-01	-4.114E-01	 0.000E+00	 0.000E+00	 0.000E+00	 1.180E+02	 1.695E+03	 8.980E+00	-1.577E+01	-2.609E+02	 5.465E+02	-2.245E+02	 2.733E-01	-3.205E-02	 7.574E+02	-9.407E+01	-2.384E+02	 5.555E+00
    1.9500	 1.244E+01	-1.676E+00	-1.784E+00	 7.500E+00	-9.792E-02	-4.278E-01	 0.000E+00	 0.000E+00	 0.000E+00	 1.350E+02	 1.743E+03	 9.474E+00	-1.436E+01	-2.668E+02	 6.198E+02	-1.204E+02	 2.491E-01	-2.971E-02	 7.687E+02	-5.868E+01	-1.402E+02	 5.779E+00
    2.0000	 1.221E+01	-2.365E+00	-2.072E+00	 7.500E+00	-8.262E-02	-4.245E-01	 0.000E+00	 0.000E+00	 0.000E+00	 1.386E+02	 1.761E+03	 1.010E+01	-1.010E+01	-2.711E+02	 6.609E+02	 2.003E+01	 2.263E-01	-2.773E-02	 7.649E+02	-4.424E+01	-1.417E+01	 5.214E+00
    2.0500	 1.253E+01	-2.659E+00	-2.032E+00	 7.500E+00	-6.492E-02	-4.144E-01	 0.000E+00	 0.000E+00	 0.000E+00	 1.468E+02	 1.739E+03	 1.010E+01	-5.003E+00	-2.729E+02	 6.473E+02	 1.278E+02	 2.051E-01	-2.614E-02	 7.532E+02	-7.419E+01	 7.732E+01	 5.513E+00
    2.1000	 1.300E+01	-2.927E+00	-1.899E+00	 7.500E+00	-4.980E-02	-4.135E-01	 0.000E+00	 0.000E+00	 0.000E+00	 1.784E+02	 1.669E+03	 9.269E+00	-1.477E+00	-2.725E+02	 5.755E+02	 1.680E+02	 1.858E-01	-2.492E-02	 7.481E+02	-1.581E+02	 1.063E+02	 5.644E+00
    2.1500	 1.306E+01	-3.431E+00	-1.754E+00	 7.500E+00	-4.178E-02	-4.275E-01	 0.000E+00	 0.000E+00	 0.000E+00	 2.383E+02	 1.575E+03	 7.908E+00	-6.884E-01	-2.718E+02	 4.720E+02	 1.586E+02	 1.684E-01	-2.399E-02	 7.575E+02	-2.774E+02	 9.410E+01	 6.091E+00
    2.2000	 1.302E+01	-3.621E+00	-2.028E+00	 7.500E+00	-4.176E-02	-4.499E-01	 0.000E+00	 0.000E+00	 0.000E+00	 3.154E+02	 1.507E+03	 6.321E+00	-2.263E+00	-2.721E+02	 3.872E+02	 1.448E+02	 1.531E-01	-2.325E-02	 7.744E+02	-3.833E+02	 8.469E+01	 6.144E+00
    2.2500	 1.305E+01	-3.060E+00	-2.289E+00	 7.500E+00	-4.758E-02	-4.725E-01	 0.000E+00	 0.000E+00	 0.000E+00	 3.942E+02	 1.476E+03	 4.830E+00	-4.637E+00	-2.728E+02	 3.261E+02	 1.576E+02	 1.400E-01	-2.268E-02	 7.852E+02	-4.619E+02	 1.047E+02	 5.834E+00
    2.3000	 1.334E+01	-3.237E+00	-2.128E+00	 7.500E+00	-5.566E-02	-4.901E-01	 0.000E+00	 0.000E+00	 0.000E+00	 4.596E+02	 1.445E+03	 3.633E+00	-5.911E+00	-2.726E+02	 2.598E+02	 1.743E+02	 1.295E-01	-2.232E-02	 7.778E+02	-5.314E+02	 1.261E+02	 5.553E+00
    2.3500	 1.331E+01	-3.110E+00	-1.696E+00	 7.500E+00	-6.448E-02	-4.993E-01	 0.000E+00	 0.000E+00	 0.000E+00	 5.014E+02	 1.393E+03	 2.885E+00	-5.337E+00	-2.709E+02	 1.942E+02	 1.599E+02	 1.215E-01	-2.222E-02	 7.566E+02	-5.878E+02	 1.111E+02	 5.218E+00
    2.4000	 1.345E+01	-3.665E+00	-2.237E+00	 7.500E+00	-7.470E-02	-4.968E-01	 0.000E+00	 0.000E+00	 0.000E+00	 5.167E+02	 1.346E+03	 2.591E+00	-3.630E+00	-2.690E+02	 1.771E+02	 1.267E+02	 1.160E-01	-2.245E-02	 7.392E+02	-5.971E+02	 7.307E+01	 4.331E+00
    2.4500	 1.365E+01	-3.369E+00	-2.577E+00	 7.500E+00	-8.652E-02	-4.829E-01	 0.000E+00	 0.000E+00	 0.000E+00	 5.117E+02	 1.312E+03	 2.615E+00	-1.735E+00	-2.683E+02	 2.024E+02	 1.128E+02	 1.129E-01	-2.301E-02	 7.346E+02	-5.747E+02	 5.318E+01	 3.998E+00
    2.5000	 1.346E+01	-2.797E+00	-2.024E+00	 7.500E+00	-9.875E-02	-4.608E-01	 0.000E+00	 0.000E+00	 0.000E+00	 4.958E+02	 1.274E+03	 2.862E+00	-1.908E-01	-2.678E+02	 2.085E+02	 1.161E+02	 1.120E-01	-2.384E-02	 7.407E+02	-5.743E+02	 5.152E+01	 3.651E+00
    2.5500	 1.370E+01	-2.602E+00	-1.740E+00	 7.500E+00	-1.105E-01	-4.351E-01	 0.000E+00	 0.000E+00	 0.000E+00	 4.799E+02	 1.227E+03	 3.173E+00	 3.879E-01	-2.664E+02	 1.817E+02	 1.223E+02	 1.134E-01	-2.482E-02	 7.472E+02	-6.011E+02	 5.620E+01	 3.833E+00
    2.6000	 1.330E+01	-2.275E+00	-1.386E+00	 7.500E+00	-1.233E-01	-4.150E-01	 0.000E+00	 0.000E+00	 0.000E+00	 4.758E+02	 1.175E+03	 3.415E+00	 1.675E-01	-2.644E+02	 1.450E+02	 1.188E+02	 1.169E-01	-2.581E-02	 7.476E+02	-6.308E+02	 5.403E+01	 4.548E+00
    2.6500	 1.352E+01	-2.151E+00	-2.106E+00	 7.500E+00	-1.404E-01	-4.097E-01	 0.000E+00	 0.000E+00	 0.000E+00	 4.892E+02	 1.119E+03	 3.316E+00	-5.997E-01	-2.621E+02	 1.386E+02	 8.375E+01	 1.223E-01	-2.674E-02	 7.415E+02	-6.260E+02	 2.183E+01	 5.172E+00
    2.7000	 1.332E+01	-2.043E+00	-1.654E+00	 7.500E+00	-1.649E-01	-4.200E-01	 0.000E+00	 0.000E+00	 0.000E+00	 5.170E+02	 1.103E+03	 2.904E+00	-1.784E+00	-2.617E+02	 1.779E+02	 5.028E+01	 1.294E-01	-2.764E-02	 7.400E+02	-5.785E+02	-8.401E+00	 5.601E+00
    2.7500	 1.282E+01	-1.968E+00	-1.426E+00	 7.500E+00	-1.987E-01	-4.392E-01	 0.000E+00	 0.000E+00	 0.000E+00	 5.467E+02	 1.140E+03	 2.636E+00	-3.235E+00	-2.638E+02	 2.385E+02	 4.199E+01	 1.379E-01	-2.861E-02	 7.458E+02	-5.143E+02	-1.304E+01	 6.258E+00
    2.8000	 1.304E+01	-2.724E+00	-1.750E+00	 7.500E+00	-2.420E-01	-4.588E-01	 0.000E+00	 0.000E+00	 0.000E+00	 5.637E+02	 1.213E+03	 2.385E+00	-4.914E+00	-2.669E+02	 2.851E+02	 5.336E+01	 1.481E-01	-2.976E-02	 7.559E+02	-4.645E+02	 3.065E+00	 7.025E+00
    2.8500	 1.226E+01	-3.161E+00	-1.192E+00	 7.500E+00	-2.893E-01	-4.722E-01	 0.000E+00	 0.000E+00	 0.000E+00	 5.600E+02	 1.292E+03	 2.293E+00	-6.442E+00	-2.702E+02	 3.182E+02	 7.331E+01	 1.600E-01	-3.113E-02	 7.673E+02	-4.275E+02	 2.786E+01	 7.917E+00
    2.9000	 1.275E+01	-2.662E+00	-1.376E+00	 7.500E+00	-3.315E-01	-4.759E-01	 0.000E+00	 0.000E+00	 0.000E+00	 5.327E+02	 1.338E+03	 2.300E+00	-7.665E+00	-2.723E+02	 3.842E+02	 9.220E+01	 1.740E-01	-3.268E-02	 7.746E+02	-3.568E+02	 5.107E+01	 8.306E+00
    2.9500	 1.273E+01	-2.606E+00	-1.224E+00	 7.500E+00	-3.648E-01	-4.683E-01	 0.000E+00	 0.000E+00	 0.000E+00	 4.874E+02	 1.349E+03	 2.721E+00	-7.925E+00	-2.725E+02	 4.596E+02	 1.467E+02	 1.900E-01	-3.434E-02	 7.804E+02	-2.713E+02	 1.066E+02	 8.317E+00
    3.0000	 1.324E+01	-2.219E+00	-8.231E-01	 7.500E+00	-3.883E-01	-4.516E-01	 0.000E+00	 0.000E+00	 0.000E+00	 4.324E+02	 1.344E+03	 3.297E+00	-6.796E+00	-2.704E+02	 4.702E+02	 2.245E+02	 2.080E-01	-3.604E-02	 7.863E+02	-2.378E+02	 1.802E+02	 8.074E+00
    3.0500	 1.268E+01	-2.644E+00	-3.037E-01	 7.500E+00	-4.011E-01	-4.291E-01	 0.000E+00	 0.000E+00	 0.000E+00	 3.754E+02	 1.328E+03	 3.975E+00	-4.852E+00	-2.661E+02	 3.832E+02	 2.632E+02	 2.275E-01	-3.778E-02	 7.866E+02	-2.900E+02	 2.123E+02	 7.392E+00
    3.1000	 1.285E+01	-2.777E+00	-3.607E-01	 7.500E+00	-4.039E-01	-4.048E-01	 0.000E+00	 0.000E+00	 0.000E+00	 3.251E+02	 1.309E+03	 4.582E+00	-3.415E+00	-2.621E+02	 2.449E+02	 2.413E+02	 2.480E-01	-3.952E-02	 7.813E+02	-3.950E+02	 1.860E+02	 7.220E+00
    3.1500	 1.264E+01	-3.100E+00	 7.990E-02	 7.500E+00	-3.989E-01	-3.823E-01	 0.000E+00	 0.000E+00	 0.000E+00	 2.873E+02	 1.291E+03	 4.862E+00	-3.483E+00	-2.606E+02	 1.339E+02	 2.005E+02	 2.689E-01	-4.121E-02	 7.761E+02	-4.877E+02	 1.462E+02	 7.232E+00
    3.2000	 1.242E+01	-2.525E+00	 8.447E-01	 7.500E+00	-3.928E-01	-3.643E-01	 0.000E+00	 0.000E+00	 0.000E+00	 2.623E+02	 1.259E+03	 4.880E+00	-4.721E+00	-2.616E+02	 8.984E+01	 1.897E+02	 2.897E-01	-4.277E-02	 7.734E+02	-5.276E+02	 1.404E+02	 7.257E+00
    3.2500	 1.225E+01	-3.044E+00	 6.667E-01	 7.500E+00	-3.945E-01	-3.505E-01	 0.000E+00	 0.000E+00	 0.000E+00	 2.459E+02	 1.219E+03	 4.825E+00	-5.748E+00	-2.635E+02	 7.887E+01	 2.225E+02	 3.100E-01	-4.415E-02	 7.741E+02	-5.347E+02	 1.772E+02	 7.357E+00
    3.3000	 1.264E+01	-3.358E+00	 8.105E-01	 7.500E+00	-4.088E-01	-3.368E-01	 0.000E+00	 0.000E+00	 0.000E+00	 2.298E+02	 1.185E+03	 4.756E+00	-5.368E+00	-2.641E+02	 6.133E+01	 2.613E+02	 3.293E-01	-4.530E-02	 7.770E+02	-5.366E+02	 2.148E+02	 7.453E+00
    3.3500	 1.297E+01	-3.044E+00	 1.704E+00	 7.500E+00	-4.304E-01	-3.196E-01	 0.000E+00	 0.000E+00	 0.000E+00	 2.042E+02	 1.144E+03	 4.764E+00	-3.966E+00	-2.635E+02	 6.032E+01	 2.763E+02	 3.471E-01	-4.619E-02	 7.758E+02	-5.151E+02	 2.252E+02	 6.931E+00
    3.4000	 1.355E+01	-2.984E+00	 1.270E+00	 7.500E+00	-4.491E-01	-2.957E-01	 0.000E+00	 0.000E+00	 0.000E+00	 1.642E+02	 1.093E+03	 5.011E+00	-2.408E+00	-2.625E+02	 9.572E+01	 2.787E+02	 3.628E-01	-4.677E-02	 7.702E+02	-4.611E+02	 2.227E+02	 6.342E+00
    3.4500	 1.331E+01	-2.744E+00	 7.420E-01	 7.500E+00	-4.598E-01	-2.641E-01	 0.000E+00	 0.000E+00	 0.000E+00	 1.081E+02	 1.033E+03	 5.412E+00	-1.784E+00	-2.617E+02	 1.547E+02	 2.766E+02	 3.762E-01	-4.704E-02	 7.636E+02	-3.918E+02	 2.190E+02	 6.841E+00
    3.5000	 1.245E+01	-2.880E+00	 8.550E-01	 7.500E+00	-4.627E-01	-2.279E-01	 0.000E+00	 0.000E+00	 0.000E+00	 4.107E+01	 9.830E+02	 6.037E+00	-2.277E+00	-2.603E+02	 2.013E+02	 2.537E+02	 3.872E-01	-4.697E-02	 7.595E+02	-3.379E+02	 1.981E+02	 7.111E+00
    3.5500	 1.265E+01	-3.111E+00	 5.891E-01	 7.500E+00	-4.611E-01	-1.924E-01	 0.000E+00	 0.000E+00	 0.000E+00	-2.911E+01	 9.668E+02	 6.710E+00	-3.599E+00	-2.581E+02	 2.178E+02	 2.021E+02	 3.956E-01	-4.658E-02	 7.632E+02	-3.113E+02	 1.506E+02	 6.647E+00
    3.6000	 1.252E+01	-3.148E+00	-1.769E-01	 7.500E+00	-4.568E-01	-1.618E-01	 0.000E+00	 0.000E+00	 0.000E+00	-9.682E+01	 9.810E+02	 7.393E+00	-5.388E+00	-2.556E+02	 2.293E+02	 1.091E+02	 4.015E-01	-4.587E-02	 7.699E+02	-2.869E+02	 6.251E+01	 5.910E+00
    3.6500	 1.304E+01	-2.834E+00	 1.313E-01	 7.500E+00	-4.484E-01	-1.378E-01	 0.000E+00	 0.000E+00	 0.000E+00	-1.595E+02	 1.010E+03	 8.102E+00	-7.355E+00	-2.541E+02	 2.788E+02	 2.028E+01	 4.049E-01	-4.491E-02	 7.749E+02	-2.279E+02	-2.091E+01	 5.380E+00
    3.7000	 1.308E+01	-3.420E+00	 3.037E-01	 7.500E+00	-4.396E-01	-1.200E-01	 0.000E+00	 0.000E+00	 0.000E+00	-2.164E+02	 1.038E+03	 8.834E+00	-9.066E+00	-2.547E+02	 3.668E+02	-2.061E+01	 4.060E-01	-4.380E-02	 7.767E+02	-1.377E+02	-5.696E+01	 5.558E+00
    3.7500	 1.265E+01	-3.236E+00	 3.117E-01	 7.500E+00	-4.380E-01	-1.084E-01	 0.000E+00	 0.000E+00	 0.000E+00	-2.659E+02	 1.060E+03	 9.539E+00	-1.007E+01	-2.571E+02	 4.546E+02	-8.604E-01	 4.051E-01	-4.266E-02	 7.773E+02	-5.403E+01	-3.434E+01	 6.306E+00
    3.8000	 1.311E+01	-2.956E+00	-6.483E-01	 7.500E+00	-4.475E-01	-1.024E-01	 0.000E+00	 0.000E+00	 0.000E+00	-3.043E+02	 1.100E+03	 1.021E+01	-9.496E+00	-2.600E+02	 4.899E+02	 3.356E+01	 4.026E-01	-4.158E-02	 7.803E+02	-2.525E+01	-2.148E+00	 7.036E+00
    3.8500	 1.254E+01	-2.743E+00	-1.221E+00	 7.500E+00	-4.632E-01	-1.006E-01	 0.000E+00	 0.000E+00	 0.000E+00	-3.319E+02	 1.159E+03	 1.081E+01	-7.685E+00	-2.627E+02	 4.814E+02	 4.982E+01	 3.986E-01	-4.057E-02	 7.855E+02	-4.266E+01	 7.829E+00	 7.024E+00
    3.9000	 1.308E+01	-3.053E+00	-8.846E-01	 7.500E+00	-4.762E-01	-1.023E-01	 0.000E+00	 0.000E+00	 0.000E+00	-3.517E+02	 1.212E+03	 1.124E+01	-5.391E+00	-2.647E+02	 4.542E+02	 5.876E+01	 3.935E-01	-3.958E-02	 7.890E+02	-8.162E+01	 9.118E+00	 7.045E+00
    3.9500	 1.322E+01	-2.901E+00	-8.949E-01	 7.500E+00	-4.795E-01	-1.068E-01	 0.000E+00	 0.000E+00	 0.000E+00	-3.673E+02	 1.232E+03	 1.143E+01	-3.242E+00	-2.656E+02	 4.002E+02	 9.374E+01	 3.873E-01	-3.852E-02	 7.888E+02	-1.460E+02	 3.722E+01	 6.556E+00
    4.0000	 1.330E+01	-2.896E+00	-7.671E-01	 7.500E+00	-4.720E-01	-1.119E-01	 0.000E+00	 0.000E+00	 0.000E+00	-3.796E+02	 1.228E+03	 1.151E+01	-1.718E+00	-2.645E+02	 3.171E+02	 1.237E+02	 3.803E-01	-3.733E-02	 7.838E+02	-2.322E+02	 6.258E+01	 6.191E+00
    4.0500	 1.341E+01	-2.045E+00	-2.626E-01	 7.500E+00	-4.569E-01	-1.140E-01	 0.000E+00	 0.000E+00	 0.000E+00	-3.898E+02	 1.228E+03	 1.156E+01	-1.155E+00	-2.620E+02	 2.276E+02	 1.071E+02	 3.724E-01	-3.600E-02	 7.769E+02	-3.193E+02	 4.424E+01	 6.288E+00
    4.1000	 1.366E+01	-1.809E+00	-2.123E-01	 7.500E+00	-4.353E-01	-1.100E-01	 0.000E+00	 0.000E+00	 0.000E+00	-4.002E+02	 1.246E+03	 1.173E+01	-1.803E+00	-2.597E+02	 1.580E+02	 4.990E+01	 3.634E-01	-3.456E-02	 7.726E+02	-3.876E+02	-1.106E+01	 6.181E+00
    4.1500	 1.371E+01	-1.450E+00	-9.178E-01	 7.500E+00	-4.058E-01	-1.001E-01	 0.000E+00	 0.000E+00	 0.000E+00	-4.128E+02	 1.247E+03	 1.171E+01	-3.206E+00	-2.599E+02	 1.247E+02	 2.931E+01	 3.533E-01	-3.308E-02	 7.725E+02	-4.295E+02	-2.738E+01	 6.390E+00
    4.2000	 1.432E+01	-1.415E+00	-1.231E+00	 7.500E+00	-3.679E-01	-8.686E-02	 0.000E+00	 0.000E+00	 0.000E+00	-4.241E+02	 1.212E+03	 1.164E+01	-4.490E+00	-2.621E+02	 1.220E+02	 7.301E+01	 3.423E-01	-3.165E-02	 7.711E+02	-4.487E+02	 2.082E+01	 6.518E+00
    4.2500	 1.405E+01	-1.747E+00	-9.303E-01	 7.500E+00	-3.258E-01	-7.441E-02	 0.000E+00	 0.000E+00	 0.000E+00	-4.271E+02	 1.151E+03	 1.150E+01	-4.906E+00	-2.643E+02	 1.334E+02	 1.394E+02	 3.304E-01	-3.032E-02	 7.665E+02	-4.558E+02	 8.931E+01	 6.665E+00
    4.3000	 1.376E+01	-1.587E+00	-1.027E-01	 7.500E+00	-2.874E-01	-6.838E-02	 0.000E+00	 0.000E+00	 0.000E+00	-4.160E+02	 1.093E+03	 1.117E+01	-4.121E+00	-2.660E+02	 1.751E+02	 1.907E+02	 3.179E-01	-2.909E-02	 7.637E+02	-4.333E+02	 1.384E+02	 6.567E+00
    4.3500	 1.383E+01	-8.673E-01	-1.986E-01	 7.500E+00	-2.572E-01	-7.252E-02	 0.000E+00	 0.000E+00	 0.000E+00	-3.891E+02	 1.069E+03	 1.081E+01	-2.601E+00	-2.669E+02	 2.646E+02	 2.216E+02	 3.047E-01	-2.797E-02	 7.662E+02	-3.630E+02	 1.639E+02	 6.250E+00
    4.4000	 1.294E+01	-1.917E-01	-5.239E-01	 7.500E+00	-2.297E-01	-8.649E-02	 0.000E+00	 0.000E+00	 0.000E+00	-3.512E+02	 1.082E+03	 1.060E+01	-8.473E-01	-2.665E+02	 3.466E+02	 2.464E+02	 2.910E-01	-2.694E-02	 7.712E+02	-2.940E+02	 1.822E+02	 5.940E+00
    4.4500	 1.300E+01	-1.022E-01	-3.059E-01	 7.500E+00	-1.983E-01	-1.080E-01	 0.000E+00	 0.000E+00	 0.000E+00	-3.080E+02	 1.125E+03	 1.058E+01	 4.679E-01	-2.648E+02	 3.747E+02	 2.419E+02	 2.769E-01	-2.601E-02	 7.690E+02	-2.690E+02	 1.734E+02	 5.583E+00
    4.5000	 1.335E+01	 1.023E-01	-4.600E-01	 7.500E+00	-1.650E-01	-1.369E-01	 0.000E+00	 0.000E+00	 0.000E+00	-2.603E+02	 1.185E+03	 1.062E+01	 5.819E-01	-2.619E+02	 3.691E+02	 1.765E+02	 2.629E-01	-2.517E-02	 7.546E+02	-2.736E+02	 1.088E+02	 4.781E+00
    4.5500	 1.315E+01	 2.356E-01	-3.881E-02	 7.500E+00	-1.390E-01	-1.742E-01	 0.000E+00	 0.000E+00	 0.000E+00	-2.062E+02	 1.263E+03	 1.075E+01	-6.507E-01	-2.599E+02	 3.835E+02	 7.427E+01	 2.491E-01	-2.439E-02	 7.430E+02	-2.655E+02	 1.139E+01	 4.177E+00
    4.6000	 1.335E+01	-4.528E-01	 2.580E-01	 7.500E+00	-1.249E-01	-2.169E-01	 0.000E+00	 0.000E+00	 0.000E+00	-1.500E+02	 1.357E+03	 1.076E+01	-2.644E+00	-2.604E+02	 4.316E+02	-1.809E+01	 2.356E-01	-2.370E-02	 7.444E+02	-2.349E+02	-7.510E+01	 3.966E+00
    4.6500	 1.331E+01	-6.062E-01	 1.975E-01	 7.500E+00	-1.194E-01	-2.584E-01	 0.000E+00	 0.000E+00	 0.000E+00	-1.006E+02	 1.454E+03	 1.067E+01	-4.300E+00	-2.633E+02	 4.673E+02	-5.996E+01	 2.229E-01	-2.319E-02	 7.595E+02	-2.202E+02	-1.134E+02	 4.054E+00
    4.7000	 1.311E+01	-8.965E-01	 2.683E-01	 7.500E+00	-1.154E-01	-2.909E-01	 0.000E+00	 0.000E+00	 0.000E+00	-6.417E+01	 1.526E+03	 1.066E+01	-4.960E+00	-2.664E+02	 4.406E+02	-7.153E+01	 2.115E-01	-2.297E-02	 7.707E+02	-2.590E+02	-1.240E+02	 4.924E+00
    4.7500	 1.359E+01	-8.874E-01	-8.904E-02	 7.500E+00	-1.090E-01	-3.107E-01	 0.000E+00	 0.000E+00	 0.000E+00	-4.081E+01	 1.555E+03	 1.077E+01	-4.450E+00	-2.688E+02	 3.541E+02	-6.310E+01	 2.016E-01	-2.308E-02	 7.697E+02	-3.485E+02	-1.169E+02	 5.476E+00
    4.8000	 1.352E+01	-6.811E-01	-2.808E-01	 7.500E+00	-1.036E-01	-3.202E-01	 0.000E+00	 0.000E+00	 0.000E+00	-2.178E+01	 1.552E+03	 1.082E+01	-2.997E+00	-2.705E+02	 2.730E+02	-3.468E+01	 1.938E-01	-2.348E-02	 7.611E+02	-4.335E+02	-9.199E+01	 5.609E+00
    4.8500	 1.392E+01	-9.221E-01	-6.792E-01	 7.500E+00	-1.038E-01	-3.269E-01	 0.000E+00	 0.000E+00	 0.000E+00	 6.063E+00	 1.540E+03	 1.053E+01	-1.091E+00	-2.718E+02	 2.298E+02	 2.985E+01	 1.882E-01	-2.407E-02	 7.590E+02	-4.859E+02	-3.315E+01	 5.344E+00
    4.9000	 1.405E+01	-5.021E-01	-3.790E-01	 7.500E+00	-1.077E-01	-3.383E-01	 0.000E+00	 0.000E+00	 0.000E+00	 5.019E+01	 1.520E+03	 9.774E+00	 7.883E-01	-2.721E+02	 1.939E+02	 1.153E+02	 1.849E-01	-2.477E-02	 7.693E+02	-5.302E+02	 4.537E+01	 4.934E+00
    4.9500	 1.413E+01	-7.961E-01	 2.180E-01	 7.500E+00	-1.083E-01	-3.560E-01	 0.000E+00	 0.000E+00	 0.000E+00	 1.084E+02	 1.483E+03	 8.621E+00	 1.879E+00	-2.709E+02	 1.291E+02	 1.855E+02	 1.839E-01	-2.554E-02	 7.812E+02	-5.936E+02	 1.112E+02	 4.372E+00
    5.0000	 1.418E+01	-5.934E-01	 2.237E-01	 7.500E+00	-1.019E-01	-3.757E-01	 0.000E+00	 0.000E+00	 0.000E+00	 1.738E+02	 1.439E+03	 7.514E+00	 1.637E+00	-2.686E+02	 5.791E+01	 2.172E+02	 1.852E-01	-2.636E-02	 7.851E+02	-6.546E+02	 1.436E+02	 4.186E+00
    5.0500	 1.467E+01	-4.547E-01	 1.895E-01	 2.600E+00	 7.690E-03	-2.635E-01	 0.000E+00	 0.000E+00	 0.000E+00	 3.323E+02	 1.400E+03	 6.437E+00	 3.627E-01	-2.657E+02	 2.377E+01	 2.729E+02	 1.886E-01	-2.714E-02	 7.441E+02	-6.744E+02	 2.076E+02	 3.838E+00
    5.1000	 1.462E+01	-9.675E-02	-1.370E-02	 2.600E+00	-3.459E-02	-3.380E-01	 0.000E+00	 0.000E+00	 0.000E+00	 4.287E+02	 1.416E+03	 4.009E+00	 3.598E-02	-2.651E+02	 4.113E+01	 2.710E+02	 1.939E-01	-2.788E-02	 7.915E+02	-6.522E+02	 2.020E+02	 3.856E+00
    5.1500	 1.437E+01	-2.189E-02	-6.506E-02	 2.600E+00	-5.296E-02	-3.866E-01	 0.000E+00	 0.000E+00	 0.000E+00	 5.050E+02	 1.568E+03	 3.496E+00	-5.718E-01	-2.684E+02	 7.725E+01	 2.920E+02	 2.007E-01	-2.875E-02	 8.549E+02	-6.170E+02	 2.194E+02	 4.071E+00
    5.2000	 1.402E+01	 6.575E-02	-8.629E-01	 2.600E+00	-3.358E-02	-3.935E-01	 0.000E+00	 0.000E+00	 0.000E+00	 5.256E+02	 1.774E+03	 4.652E+00	-2.647E+00	-2.727E+02	 8.613E+01	 3.166E+02	 2.095E-01	-2.977E-02	 8.085E+02	-6.037E+02	 2.565E+02	 4.013E+00
    5.2500	 1.398E+01	-3.798E-01	-1.481E+00	 2.600E+00	-8.997E-03	-3.882E-01	 0.000E+00	 0.000E+00	 0.000E+00	 5.308E+02	 1.906E+03	 5.617E+00	-3.338E+00	-2.745E+02	 7.707E+01	 3.260E+02	 2.212E-01	-3.081E-02	 7.366E+02	-5.977E+02	 2.758E+02	 3.895E+00
    5.3000	 1.468E+01	-5.952E-01	-2.111E+00	 2.600E+00	-1.403E-02	-4.006E-01	 0.000E+00	 0.000E+00	 0.000E+00	 5.566E+02	 1.929E+03	 5.109E+00	-9.267E-01	-2.733E+02	 9.166E+01	 3.242E+02	 2.360E-01	-3.171E-02	 7.264E+02	-5.639E+02	 2.665E+02	 3.752E+00
    5.3500	 1.481E+01	-5.222E-01	-2.159E+00	 2.600E+00	-4.933E-02	-4.279E-01	 0.000E+00	 0.000E+00	 0.000E+00	 5.951E+02	 1.908E+03	 3.650E+00	 2.821E+00	-2.711E+02	 1.308E+02	 3.228E+02	 2.535E-01	-3.245E-02	 7.708E+02	-5.071E+02	 2.473E+02	 3.864E+00
    5.4000	 1.420E+01	-6.921E-01	-1.950E+00	 2.600E+00	-8.947E-02	-4.455E-01	 0.000E+00	 0.000E+00	 0.000E+00	 6.196E+02	 1.900E+03	 2.815E+00	 4.268E+00	-2.692E+02	 1.637E+02	 3.189E+02	 2.733E-01	-3.309E-02	 8.104E+02	-4.582E+02	 2.343E+02	 3.684E+00
    5.4500	 1.418E+01	-8.016E-01	-2.065E+00	 2.600E+00	-1.157E-01	-4.410E-01	 0.000E+00	 0.000E+00	 0.000E+00	 6.186E+02	 1.880E+03	 3.020E+00	 2.142E+00	-2.673E+02	 1.602E+02	 2.808E+02	 2.948E-01	-3.370E-02	 8.072E+02	-4.419E+02	 2.043E+02	 3.453E+00
    5.5000	 1.486E+01	-3.086E-01	-2.092E+00	 2.600E+00	-1.321E-01	-4.269E-01	 0.000E+00	 0.000E+00	 0.000E+00	 6.093E+02	 1.808E+03	 3.474E+00	-1.835E+00	-2.651E+02	 1.464E+02	 1.969E+02	 3.179E-01	-3.423E-02	 7.799E+02	-4.322E+02	 1.372E+02	 2.836E+00
    5.5500	 1.433E+01	-2.410E-01	-2.284E+00	 2.600E+00	-1.526E-01	-4.196E-01	 0.000E+00	 0.000E+00	 0.000E+00	 6.091E+02	 1.735E+03	 3.487E+00	-4.831E+00	-2.633E+02	 1.569E+02	 1.328E+02	 3.419E-01	-3.461E-02	 7.678E+02	-3.981E+02	 8.450E+01	 2.675E+00
    5.6000	 1.469E+01	-3.123E-01	-1.957E+00	 2.600E+00	-1.808E-01	-4.227E-01	 0.000E+00	 0.000E+00	 0.000E+00	 6.160E+02	 1.714E+03	 2.891E+00	-5.180E+00	-2.624E+02	 1.807E+02	 1.232E+02	 3.664E-01	-3.483E-02	 7.785E+02	-3.513E+02	 7.432E+01	 2.742E+00
    5.6500	 1.399E+01	-9.367E-01	-2.262E+00	 2.600E+00	-2.081E-01	-4.283E-01	 0.000E+00	 0.000E+00	 0.000E+00	 6.178E+02	 1.742E+03	 2.058E+00	-3.687E+00	-2.624E+02	 1.943E+02	 1.411E+02	 3.908E-01	-3.498E-02	 7.908E+02	-3.152E+02	 8.502E+01	 2.629E+00
    5.7000	 1.347E+01	-9.459E-01	-2.104E+00	 2.600E+00	-2.271E-01	-4.278E-01	 0.000E+00	 0.000E+00	 0.000E+00	 6.066E+02	 1.753E+03	 2.034E+00	-2.020E+00	-2.624E+02	 1.903E+02	 1.153E+02	 4.147E-01	-3.518E-02	 7.825E+02	-2.971E+02	 5.374E+01	 2.921E+00