
Predictions were generated on 06-Nov-2020 at 16:22:00 using OpenFAST, compiled as a 64-bit application using double precision at commit -128-NOTFOUND
 linked with  NWTC Subroutine Library; ElastoDyn; InflowWind; AeroDyn; ServoDyn

Description from the FAST input file: FAST Certification Test #03: AWT-27CR2 with many DOFs with free yaw and steady wind.

Time	Wind1VelX	Wind1VelY	Wind1VelZ	Azimuth	TeetDefl	RotTeetV	RotTeetA	OoPDefl2	IPDefl2	RootMOoP2	RootMIP2	RotTorq	YawBrTDxp	YawBrTDyp	YawBrTAxp	YawBrTAyp	NacYaw	NacYawV	NacYawA	LSSGagMys	LSSGagMzs	TwrBsMxt	TwrBsMyt	B1N3VUndx	B1N3VUndy	B1N3VUndz	B1N3VDisx	B1N3VDisy	B1N3VDisz	B1N3STVx	B1N3STVy	B1N3STVz
(s)	(m/s)	(m/s)	(m/s)	(deg)	(deg)	(deg/s)	(deg/s^2)	(m)	(m)	(kN-m)	(kN-m)	(kN-m)	(m)	(m)	(m/s^2)	(m/s^2)	(deg)	(deg/s)	(deg/s^2)	(kN-m)	(kN-m)	(kN-m)	(kN-m)	(m/s)	(m/s)	(m/s)	(m/s)	(m/s)	(m/s)	(m/s)	(m/s)	(m/s)
   10.0000	 1.039E+01	-6.000E+00	 0.000E+00	 1.499E+01	 4.199E-01	 4.391E+00	-4.130E+01	 1.515E-01	-2.005E-02	 3.357E+01	 7.454E+00	 3.456E+01	 4.446E-02	-2.361E-02	-1.166E-02	 6.937E-02	-2.566E+01	 3.756E-02	-1.427E+01	 8.173E+00	-1.867E+00	 5.996E+02	 1.151E+03	 1.245E+01	-9.204E-01	 2.138E+00	 1.245E+01	-9.204E-01	 2.138E+00	 8.322E-01	-7.745E+01	-1.257E-01
   10.0200	 1.039E+01	-6.000E+00	 0.000E+00	 2.151E+01	 4.994E-01	 3.605E+00	-2.971E+01	 1.470E-01	-1.951E-02	 3.544E+01	 6.796E+00	 3.444E+01	 4.404E-02	-2.357E-02	 8.663E-02	 3.229E-02	-2.566E+01	-2.141E-01	-1.043E+01	 8.062E+00	-2.137E+00	 6.014E+02	 1.139E+03	 1.241E+01	-8.819E-01	 2.231E+00	 1.241E+01	-8.819E-01	 2.231E+00	 7.780E-01	-7.744E+01	-1.278E-01
   10.0400	 1.039E+01	-6.000E+00	 0.000E+00	 2.802E+01	 5.669E-01	 3.189E+00	-1.665E+01	 1.416E-01	-1.952E-02	 3.674E+01	 6.715E+00	 3.540E+01	 4.366E-02	-2.352E-02	 1.287E-01	 1.134E-02	-2.566E+01	-3.823E-01	-6.879E+00	 8.256E+00	-2.306E+00	 5.994E+02	 1.123E+03	 1.237E+01	-8.309E-01	 2.324E+00	 1.237E+01	-8.309E-01	 2.324E+00	 8.527E-01	-7.747E+01	-1.304E-01
   10.0600	 1.039E+01	-6.000E+00	 0.000E+00	 3.453E+01	 6.271E-01	 2.815E+00	-2.027E+01	 1.383E-01	-1.902E-02	 3.670E+01	 5.499E+00	 3.666E+01	 4.333E-02	-2.346E-02	 1.016E-01	 3.672E-02	-2.567E+01	-5.149E-01	-7.029E+00	 8.753E+00	-2.652E+00	 5.933E+02	 1.106E+03	 1.231E+01	-7.687E-01	 2.432E+00	 1.231E+01	-7.687E-01	 2.432E+00	 9.135E-01	-7.751E+01	-1.353E-01
   10.0800	 1.039E+01	-6.000E+00	 0.000E+00	 4.104E+01	 6.797E-01	 2.468E+00	-1.209E+01	 1.376E-01	-1.769E-02	 3.577E+01	 3.019E+00	 3.728E+01	 4.303E-02	-2.338E-02	 6.181E-02	 8.212E-02	-2.569E+01	-6.810E-01	-9.750E+00	 9.551E+00	-3.049E+00	 5.859E+02	 1.093E+03	 1.225E+01	-6.962E-01	 2.542E+00	 1.225E+01	-6.962E-01	 2.542E+00	 8.496E-01	-7.752E+01	-1.407E-01
   10.1000	 1.039E+01	-6.000E+00	 0.000E+00	 4.756E+01	 7.273E-01	 2.330E+00	-3.233E+00	 1.387E-01	-1.600E-02	 3.528E+01	-8.195E-02	 3.701E+01	 4.277E-02	-2.327E-02	 7.195E-02	 9.841E-02	-2.570E+01	-8.992E-01	-1.166E+01	 1.064E+01	-3.220E+00	 5.807E+02	 1.088E+03	 1.218E+01	-6.149E-01	 2.636E+00	 1.218E+01	-6.149E-01	 2.636E+00	 6.718E-01	-7.750E+01	-1.440E-01
   10.1200	 1.039E+01	-6.000E+00	 0.000E+00	 5.407E+01	 7.733E-01	 2.254E+00	-5.961E+00	 1.405E-01	-1.469E-02	 3.593E+01	-2.717E+00	 3.642E+01	 4.253E-02	-2.313E-02	 1.356E-01	 6.624E-02	-2.572E+01	-1.125E+00	-1.036E+01	 1.170E+01	-3.062E+00	 5.786E+02	 1.089E+03	 1.211E+01	-5.260E-01	 2.701E+00	 1.211E+01	-5.260E-01	 2.701E+00	 4.537E-01	-7.747E+01	-1.452E-01
   10.1400	 1.039E+01	-6.000E+00	 0.000E+00	 6.059E+01	 8.166E-01	 2.055E+00	-1.425E+01	 1.428E-01	-1.424E-02	 3.718E+01	-4.063E+00	 3.618E+01	 4.235E-02	-2.296E-02	 1.984E-01	 8.222E-03	-2.575E+01	-1.294E+00	-6.082E+00	 1.245E+01	-2.637E+00	 5.772E+02	 1.090E+03	 1.204E+01	-4.313E-01	 2.741E+00	 1.204E+01	-4.313E-01	 2.741E+00	 2.665E-01	-7.742E+01	-1.456E-01
   10.1600	 1.039E+01	-6.000E+00	 0.000E+00	 6.710E+01	 8.543E-01	 1.679E+00	-2.352E+01	 1.455E-01	-1.451E-02	 3.810E+01	-4.234E+00	 3.649E+01	 4.224E-02	-2.278E-02	 2.092E-01	-3.693E-02	-2.577E+01	-1.362E+00	-8.099E-01	 1.285E+01	-2.089E+00	 5.734E+02	 1.086E+03	 1.196E+01	-3.327E-01	 2.765E+00	 1.196E+01	-3.327E-01	 2.765E+00	 1.290E-01	-7.739E+01	-1.468E-01
   10.1800	 1.039E+01	-6.000E+00	 0.000E+00	 7.361E+01	 8.825E-01	 1.115E+00	-3.255E+01	 1.487E-01	-1.499E-02	 3.829E+01	-4.003E+00	 3.697E+01	 4.222E-02	-2.262E-02	 1.671E-01	-4.770E-02	-2.580E+01	-1.333E+00	 3.462E+00	 1.303E+01	-1.562E+00	 5.661E+02	 1.081E+03	 1.188E+01	-2.319E-01	 2.780E+00	 1.188E+01	-2.319E-01	 2.780E+00	 4.317E-03	-7.737E+01	-1.501E-01
   10.2000	 1.039E+01	-6.000E+00	 0.000E+00	 8.013E+01	 8.979E-01	 3.985E-01	-3.844E+01	 1.513E-01	-1.522E-02	 3.806E+01	-4.039E+00	 3.717E+01	 4.226E-02	-2.248E-02	 1.141E-01	-3.510E-02	-2.583E+01	-1.235E+00	 6.037E+00	 1.316E+01	-1.107E+00	 5.570E+02	 1.078E+03	 1.180E+01	-1.306E-01	 2.784E+00	 1.180E+01	-1.306E-01	 2.784E+00	-1.481E-01	-7.737E+01	-1.563E-01
   10.2200	 1.039E+01	-6.000E+00	 0.000E+00	 8.664E+01	 8.980E-01	-3.951E-01	-4.038E+01	 1.524E-01	-1.507E-02	 3.790E+01	-4.465E+00	 3.698E+01	 4.236E-02	-2.235E-02	 9.149E-02	-2.770E-02	-2.585E+01	-1.098E+00	 7.605E+00	 1.328E+01	-6.849E-01	 5.495E+02	 1.082E+03	 1.172E+01	-3.016E-02	 2.772E+00	 1.172E+01	-3.016E-02	 2.772E+00	-3.303E-01	-7.736E+01	-1.651E-01
   10.2400	 1.039E+01	-6.000E+00	 0.000E+00	 9.316E+01	 8.820E-01	-1.201E+00	-3.989E+01	 1.517E-01	-1.475E-02	 3.802E+01	-4.892E+00	 3.666E+01	 4.248E-02	-2.223E-02	 1.036E-01	-4.363E-02	-2.587E+01	-9.311E-01	 9.145E+00	 1.334E+01	-2.501E-01	 5.460E+02	 1.091E+03	 1.164E+01	 6.819E-02	 2.742E+00	 1.164E+01	 6.819E-02	 2.742E+00	-5.137E-01	-7.735E+01	-1.756E-01
   10.2600	 1.039E+01	-6.000E+00	 0.000E+00	 9.968E+01	 8.501E-01	-1.980E+00	-3.781E+01	 1.497E-01	-1.458E-02	 3.817E+01	-4.795E+00	 3.648E+01	 4.265E-02	-2.213E-02	 1.216E-01	-7.735E-02	-2.589E+01	-7.310E-01	 1.086E+01	 1.323E+01	 1.902E-01	 5.460E+02	 1.102E+03	 1.155E+01	 1.634E-01	 2.695E+00	 1.155E+01	 1.634E-01	 2.695E+00	-6.722E-01	-7.734E+01	-1.860E-01
   10.2800	 1.039E+01	-6.000E+00	 0.000E+00	 1.062E+02	 8.032E-01	-2.703E+00	-3.425E+01	 1.474E-01	-1.477E-02	 3.807E+01	-3.927E+00	 3.648E+01	 4.287E-02	-2.207E-02	 1.151E-01	-1.087E-01	-2.590E+01	-4.995E-01	 1.214E+01	 1.289E+01	 5.912E-01	 5.475E+02	 1.113E+03	 1.147E+01	 2.545E-01	 2.635E+00	 1.147E+01	 2.545E-01	 2.635E+00	-8.029E-01	-7.733E+01	-1.947E-01
   10.3000	 1.039E+01	-6.000E+00	 0.000E+00	 1.127E+02	 7.425E-01	-3.342E+00	-2.938E+01	 1.456E-01	-1.529E-02	 3.765E+01	-2.456E+00	 3.650E+01	 4.313E-02	-2.204E-02	 7.810E-02	-1.219E-01	-2.591E+01	-2.535E-01	 1.224E+01	 1.237E+01	 9.148E-01	 5.485E+02	 1.121E+03	 1.140E+01	 3.409E-01	 2.566E+00	 1.140E+01	 3.409E-01	 2.566E+00	-9.188E-01	-7.732E+01	-2.001E-01
   10.3200	 1.039E+01	-6.000E+00	 0.000E+00	 1.192E+02	 6.702E-01	-3.874E+00	-2.409E+01	 1.446E-01	-1.599E-02	 3.712E+01	-7.885E-01	 3.640E+01	 4.343E-02	-2.206E-02	 2.902E-02	-1.158E-01	-2.591E+01	-1.807E-02	 1.113E+01	 1.177E+01	 1.164E+00	 5.486E+02	 1.128E+03	 1.132E+01	 4.218E-01	 2.487E+00	 1.132E+01	 4.218E-01	 2.487E+00	-1.027E+00	-7.734E+01	-2.021E-01
   10.3400	 1.039E+01	-6.000E+00	 0.000E+00	 1.257E+02	 5.882E-01	-4.308E+00	-1.925E+01	 1.444E-01	-1.671E-02	 3.676E+01	 7.644E-01	 3.621E+01	 4.373E-02	-2.213E-02	-6.917E-03	-1.024E-01	-2.591E+01	 1.876E-01	 9.391E+00	 1.120E+01	 1.356E+00	 5.490E+02	 1.135E+03	 1.125E+01	 4.965E-01	 2.397E+00	 1.125E+01	 4.965E-01	 2.397E+00	-1.117E+00	-7.736E+01	-2.016E-01
   10.3600	 1.039E+01	-6.000E+00	 0.000E+00	 1.322E+02	 4.986E-01	-4.643E+00	-1.439E+01	 1.446E-01	-1.736E-02	 3.663E+01	 2.151E+00	 3.605E+01	 4.404E-02	-2.224E-02	-2.138E-02	-9.292E-02	-2.590E+01	 3.585E-01	 7.763E+00	 1.067E+01	 1.510E+00	 5.512E+02	 1.145E+03	 1.118E+01	 5.645E-01	 2.296E+00	 1.118E+01	 5.645E-01	 2.296E+00	-1.171E+00	-7.740E+01	-1.994E-01
   10.3800	 1.039E+01	-6.000E+00	 0.000E+00	 1.388E+02	 4.032E-01	-4.880E+00	-9.413E+00	 1.451E-01	-1.802E-02	 3.660E+01	 3.545E+00	 3.603E+01	 4.433E-02	-2.239E-02	-2.420E-02	-8.972E-02	-2.589E+01	 5.007E-01	 6.515E+00	 1.015E+01	 1.608E+00	 5.561E+02	 1.156E+03	 1.113E+01	 6.251E-01	 2.189E+00	 1.113E+01	 6.251E-01	 2.189E+00	-1.177E+00	-7.743E+01	-1.962E-01
   10.4000	 1.039E+01	-6.000E+00	 0.000E+00	 1.453E+02	 3.040E-01	-5.018E+00	-4.286E+00	 1.457E-01	-1.878E-02	 3.656E+01	 5.172E+00	 3.614E+01	 4.462E-02	-2.257E-02	-2.764E-02	-8.835E-02	-2.588E+01	 6.191E-01	 5.274E+00	 9.603E+00	 1.603E+00	 5.633E+02	 1.166E+03	 1.108E+01	 6.780E-01	 2.081E+00	 1.108E+01	 6.780E-01	 2.081E+00	-1.145E+00	-7.746E+01	-1.918E-01
   10.4200	 1.039E+01	-6.000E+00	 0.000E+00	 1.518E+02	 2.032E-01	-5.046E+00	 1.616E+00	 1.463E-01	-1.968E-02	 3.645E+01	 7.105E+00	 3.627E+01	 4.489E-02	-2.279E-02	-3.822E-02	-8.182E-02	-2.587E+01	 7.085E-01	 3.579E+00	 9.028E+00	 1.464E+00	 5.718E+02	 1.175E+03	 1.103E+01	 7.228E-01	 1.973E+00	 1.103E+01	 7.228E-01	 1.973E+00	-1.093E+00	-7.748E+01	-1.857E-01
   10.4400	 1.039E+01	-6.000E+00	 0.000E+00	 1.583E+02	 1.030E-01	-4.955E+00	 7.272E+00	 1.469E-01	-2.071E-02	 3.637E+01	 9.224E+00	 3.634E+01	 4.515E-02	-2.304E-02	-5.244E-02	-6.657E-02	-2.585E+01	 7.592E-01	 1.441E+00	 8.465E+00	 1.199E+00	 5.806E+02	 1.181E+03	 1.100E+01	 7.589E-01	 1.866E+00	 1.100E+01	 7.589E-01	 1.866E+00	-1.040E+00	-7.750E+01	-1.781E-01
   10.4600	 1.039E+01	-6.000E+00	 0.000E+00	 1.648E+02	 5.637E-03	-4.765E+00	 1.145E+01	 1.474E-01	-2.175E-02	 3.638E+01	 1.135E+01	 3.634E+01	 4.539E-02	-2.332E-02	-6.464E-02	-4.268E-02	-2.584E+01	 7.656E-01	-7.913E-01	 7.965E+00	 8.356E-01	 5.892E+02	 1.186E+03	 1.098E+01	 7.861E-01	 1.759E+00	 1.098E+01	 7.861E-01	 1.759E+00	-9.917E-01	-7.752E+01	-1.698E-01
   10.4800	 1.039E+01	-6.000E+00	 0.000E+00	 1.713E+02	-8.726E-02	-4.526E+00	 1.084E+01	 1.479E-01	-2.277E-02	 3.637E+01	 1.342E+01	 3.628E+01	 4.560E-02	-2.362E-02	-7.611E-02	-1.080E-02	-2.582E+01	 7.277E-01	-3.038E+00	 7.577E+00	 3.923E-01	 5.978E+02	 1.190E+03	 1.097E+01	 8.040E-01	 1.653E+00	 1.097E+01	 8.040E-01	 1.653E+00	-9.443E-01	-7.753E+01	-1.620E-01
   10.5000	 1.039E+01	-6.000E+00	 0.000E+00	 1.778E+02	-1.756E-01	-4.295E+00	 1.301E+01	 1.483E-01	-2.375E-02	 3.624E+01	 1.550E+01	 3.622E+01	 4.578E-02	-2.391E-02	-7.905E-02	 2.112E-02	-2.581E+01	 6.430E-01	-5.283E+00	 7.349E+00	-1.207E-01	 6.067E+02	 1.194E+03	 1.097E+01	 8.122E-01	 1.550E+00	 8.571E+00	 6.357E-01	 1.207E+00	-9.172E-01	-7.753E+01	-1.560E-01
   10.5200	 1.039E+01	-6.000E+00	 0.000E+00	 1.844E+02	-2.609E-01	-4.376E+00	-2.639E+01	 1.482E-01	-2.470E-02	 3.483E+01	 1.787E+01	 3.598E+01	 4.593E-02	-2.420E-02	-1.277E-01	 7.653E-02	-2.580E+01	 5.090E-01	-8.897E+00	 7.470E+00	-7.474E-01	 6.159E+02	 1.198E+03	 1.099E+01	 8.104E-01	 1.457E+00	 1.099E+01	 8.104E-01	 1.457E+00	-1.051E+00	-7.748E+01	-1.506E-01
   10.5400	 1.039E+01	-6.000E+00	 0.000E+00	 1.909E+02	-3.528E-01	-4.682E+00	 1.207E+01	 1.452E-01	-2.564E-02	 3.326E+01	 2.080E+01	 3.502E+01	 4.603E-02	-2.446E-02	-1.341E-01	 1.150E-01	-2.579E+01	 2.738E-01	-1.406E+01	 8.057E+00	-1.508E+00	 6.259E+02	 1.203E+03	 1.102E+01	 7.985E-01	 1.359E+00	 1.102E+01	 7.985E-01	 1.359E+00	-1.118E+00	-7.747E+01	-1.415E-01
   10.5600	 1.039E+01	-6.000E+00	 0.000E+00	 1.974E+02	-4.408E-01	-4.009E+00	 4.243E+01	 1.410E-01	-2.617E-02	 3.397E+01	 2.227E+01	 3.428E+01	 4.608E-02	-2.468E-02	-5.608E-02	 1.022E-01	-2.579E+01	-1.070E-02	-1.330E+01	 8.078E+00	-2.010E+00	 6.356E+02	 1.207E+03	 1.106E+01	 7.760E-01	 1.244E+00	 1.106E+01	 7.760E-01	 1.244E+00	-1.136E+00	-7.751E+01	-1.329E-01
   10.5800	 1.039E+01	-6.000E+00	 0.000E+00	 2.039E+02	-5.137E-01	-3.362E+00	 2.101E+01	 1.395E-01	-2.649E-02	 3.603E+01	 2.271E+01	 3.458E+01	 4.610E-02	-2.485E-02	 1.301E-02	 7.307E-02	-2.579E+01	-2.341E-01	-8.978E+00	 8.052E+00	-2.200E+00	 6.423E+02	 1.205E+03	 1.112E+01	 7.432E-01	 1.125E+00	 1.112E+01	 7.432E-01	 1.125E+00	-1.043E+00	-7.755E+01	-1.308E-01
   10.6000	 1.039E+01	-6.000E+00	 0.000E+00	 2.104E+02	-5.774E-01	-3.020E+00	 1.722E+01	 1.418E-01	-2.732E-02	 3.705E+01	 2.418E+01	 3.578E+01	 4.613E-02	-2.500E-02	 1.404E-02	 7.497E-02	-2.580E+01	-3.841E-01	-6.671E+00	 8.382E+00	-2.420E+00	 6.441E+02	 1.199E+03	 1.118E+01	 7.006E-01	 1.015E+00	 1.118E+01	 7.006E-01	 1.015E+00	-8.375E-01	-7.754E+01	-1.315E-01
   10.6200	 1.039E+01	-6.000E+00	 0.000E+00	 2.169E+02	-6.341E-01	-2.644E+00	 1.800E+01	 1.476E-01	-2.887E-02	 3.657E+01	 2.688E+01	 3.690E+01	 4.616E-02	-2.511E-02	-3.810E-02	 1.192E-01	-2.580E+01	-5.265E-01	-8.097E+00	 8.989E+00	-2.813E+00	 6.417E+02	 1.192E+03	 1.125E+01	 6.487E-01	 9.301E-01	 1.125E+01	 6.487E-01	 9.301E-01	-5.827E-01	-7.752E+01	-1.300E-01
   10.6400	 1.039E+01	-6.000E+00	 0.000E+00	 2.234E+02	-6.840E-01	-2.385E+00	 6.965E+00	 1.549E-01	-3.078E-02	 3.585E+01	 2.992E+01	 3.719E+01	 4.618E-02	-2.517E-02	-7.505E-02	 1.639E-01	-2.582E+01	-7.174E-01	-1.092E+01	 9.921E+00	-3.149E+00	 6.387E+02	 1.189E+03	 1.133E+01	 5.880E-01	 8.676E-01	 1.133E+01	 5.880E-01	 8.676E-01	-3.864E-01	-7.750E+01	-1.271E-01
   10.6600	 1.039E+01	-6.000E+00	 0.000E+00	 2.300E+02	-7.308E-01	-2.314E+00	 2.101E+00	 1.608E-01	-3.257E-02	 3.600E+01	 3.256E+01	 3.673E+01	 4.617E-02	-2.518E-02	-4.980E-02	 1.660E-01	-2.583E+01	-9.502E-01	-1.182E+01	 1.105E+01	-3.196E+00	 6.377E+02	 1.193E+03	 1.142E+01	 5.191E-01	 8.147E-01	 1.142E+01	 5.191E-01	 8.147E-01	-2.708E-01	-7.751E+01	-1.251E-01
   10.6800	 1.039E+01	-6.000E+00	 0.000E+00	 2.365E+02	-7.764E-01	-2.225E+00	 7.884E+00	 1.639E-01	-3.389E-02	 3.709E+01	 3.434E+01	 3.622E+01	 4.614E-02	-2.511E-02	 1.509E-02	 1.227E-01	-2.585E+01	-1.167E+00	-9.283E+00	 1.204E+01	-2.920E+00	 6.384E+02	 1.199E+03	 1.151E+01	 4.427E-01	 7.643E-01	 1.151E+01	 4.427E-01	 7.643E-01	-1.729E-01	-7.756E+01	-1.258E-01
   10.7000	 1.039E+01	-6.000E+00	 0.000E+00	 2.430E+02	-8.187E-01	-1.980E+00	 1.679E+01	 1.650E-01	-3.464E-02	 3.834E+01	 3.522E+01	 3.621E+01	 4.612E-02	-2.500E-02	 5.950E-02	 6.638E-02	-2.588E+01	-1.305E+00	-4.355E+00	 1.266E+01	-2.423E+00	 6.377E+02	 1.201E+03	 1.160E+01	 3.601E-01	 7.213E-01	 1.160E+01	 3.601E-01	 7.213E-01	-4.488E-02	-7.761E+01	-1.287E-01
   10.7200	 1.039E+01	-6.000E+00	 0.000E+00	 2.495E+02	-8.543E-01	-1.549E+00	 2.631E+01	 1.654E-01	-3.493E-02	 3.893E+01	 3.557E+01	 3.665E+01	 4.612E-02	-2.486E-02	 4.754E-02	 3.283E-02	-2.591E+01	-1.340E+00	 7.825E-01	 1.297E+01	-1.860E+00	 6.329E+02	 1.198E+03	 1.169E+01	 2.724E-01	 6.933E-01	 1.169E+01	 2.724E-01	 6.933E-01	 1.028E-01	-7.764E+01	-1.309E-01
   10.7400	 1.039E+01	-6.000E+00	 0.000E+00	 2.560E+02	-8.795E-01	-9.334E-01	 3.479E+01	 1.659E-01	-3.499E-02	 3.874E+01	 3.576E+01	 3.708E+01	 4.613E-02	-2.471E-02	-2.916E-03	 3.215E-02	-2.593E+01	-1.284E+00	 4.506E+00	 1.312E+01	-1.350E+00	 6.240E+02	 1.192E+03	 1.179E+01	 1.809E-01	 6.824E-01	 1.179E+01	 1.809E-01	 6.824E-01	 2.317E-01	-7.765E+01	-1.293E-01
   10.7600	 1.039E+01	-6.000E+00	 0.000E+00	 2.625E+02	-8.908E-01	-1.840E-01	 3.942E+01	 1.664E-01	-3.502E-02	 3.826E+01	 3.600E+01	 3.714E+01	 4.615E-02	-2.454E-02	-4.461E-02	 4.400E-02	-2.596E+01	-1.170E+00	 6.668E+00	 1.324E+01	-9.077E-01	 6.137E+02	 1.189E+03	 1.188E+01	 8.694E-02	 6.846E-01	 1.188E+01	 8.694E-02	 6.846E-01	 3.201E-01	-7.764E+01	-1.226E-01
   10.7800	 1.039E+01	-6.000E+00	 0.000E+00	 2.690E+02	-8.865E-01	 6.197E-01	 4.052E+01	 1.665E-01	-3.510E-02	 3.801E+01	 3.624E+01	 3.689E+01	 4.615E-02	-2.436E-02	-4.752E-02	 4.072E-02	-2.598E+01	-1.021E+00	 8.199E+00	 1.335E+01	-4.807E-01	 6.052E+02	 1.190E+03	 1.197E+01	-8.431E-03	 6.940E-01	 1.197E+01	-8.431E-03	 6.940E-01	 3.834E-01	-7.764E+01	-1.118E-01
   10.8000	 1.039E+01	-6.000E+00	 0.000E+00	 2.756E+02	-8.660E-01	 1.424E+00	 3.964E+01	 1.660E-01	-3.515E-02	 3.800E+01	 3.626E+01	 3.661E+01	 4.613E-02	-2.416E-02	-2.152E-02	 1.246E-02	-2.600E+01	-8.411E-01	 9.867E+00	 1.335E+01	-4.153E-02	 6.001E+02	 1.195E+03	 1.205E+01	-1.041E-01	 7.091E-01	 1.205E+01	-1.041E-01	 7.091E-01	 4.569E-01	-7.765E+01	-9.934E-02
   10.8200	 1.039E+01	-6.000E+00	 0.000E+00	 2.821E+02	-8.297E-01	 2.195E+00	 3.716E+01	 1.648E-01	-3.496E-02	 3.794E+01	 3.580E+01	 3.652E+01	 4.610E-02	-2.395E-02	-1.471E-04	-2.796E-02	-2.601E+01	-6.266E-01	 1.153E+01	 1.314E+01	 3.851E-01	 5.972E+02	 1.200E+03	 1.213E+01	-1.989E-01	 7.333E-01	 1.213E+01	-1.989E-01	 7.333E-01	 5.619E-01	-7.766E+01	-8.764E-02
   10.8400	 1.039E+01	-6.000E+00	 0.000E+00	 2.886E+02	-7.786E-01	 2.900E+00	 3.319E+01	 1.633E-01	-3.435E-02	 3.758E+01	 3.469E+01	 3.657E+01	 4.607E-02	-2.376E-02	-6.887E-03	-5.985E-02	-2.602E+01	-3.852E-01	 1.242E+01	 1.272E+01	 7.533E-01	 5.943E+02	 1.201E+03	 1.221E+01	-2.920E-01	 7.714E-01	 1.221E+01	-2.920E-01	 7.714E-01	 6.910E-01	-7.767E+01	-7.822E-02
   10.8600	 1.039E+01	-6.000E+00	 0.000E+00	 2.951E+02	-7.143E-01	 3.514E+00	 2.764E+01	 1.613E-01	-3.336E-02	 3.694E+01	 3.307E+01	 3.656E+01	 4.604E-02	-2.359E-02	-3.828E-02	-7.182E-02	-2.603E+01	-1.386E-01	 1.201E+01	 1.215E+01	 1.039E+00	 5.898E+02	 1.198E+03	 1.228E+01	-3.824E-01	 8.254E-01	 1.228E+01	-3.824E-01	 8.254E-01	 8.201E-01	-7.767E+01	-7.161E-02
   10.8800	 1.039E+01	-6.000E+00	 0.000E+00	 3.016E+02	-6.388E-01	 4.019E+00	 2.281E+01	 1.587E-01	-3.217E-02	 3.629E+01	 3.128E+01	 3.643E+01	 4.599E-02	-2.345E-02	-7.019E-02	-6.902E-02	-2.603E+01	 8.843E-02	 1.057E+01	 1.156E+01	 1.257E+00	 5.843E+02	 1.195E+03	 1.234E+01	-4.689E-01	 8.937E-01	 1.234E+01	-4.689E-01	 8.937E-01	 9.303E-01	-7.765E+01	-6.758E-02
   10.9000	 1.039E+01	-6.000E+00	 0.000E+00	 3.081E+02	-5.542E-01	 4.426E+00	 1.794E+01	 1.555E-01	-3.102E-02	 3.586E+01	 2.961E+01	 3.625E+01	 4.591E-02	-2.333E-02	-8.312E-02	-6.387E-02	-2.602E+01	 2.817E-01	 8.770E+00	 1.100E+01	 1.428E+00	 5.791E+02	 1.192E+03	 1.239E+01	-5.506E-01	 9.740E-01	 1.239E+01	-5.506E-01	 9.740E-01	 1.016E+00	-7.763E+01	-6.569E-02
   10.9200	 1.039E+01	-6.000E+00	 0.000E+00	 3.146E+02	-4.624E-01	 4.735E+00	 1.277E+01	 1.522E-01	-3.006E-02	 3.565E+01	 2.814E+01	 3.614E+01	 4.580E-02	-2.324E-02	-7.609E-02	-6.493E-02	-2.602E+01	 4.413E-01	 7.263E+00	 1.048E+01	 1.561E+00	 5.760E+02	 1.190E+03	 1.244E+01	-6.263E-01	 1.064E+00	 1.244E+01	-6.263E-01	 1.064E+00	 1.080E+00	-7.760E+01	-6.574E-02
   10.9400	 1.039E+01	-6.000E+00	 0.000E+00	 3.212E+02	-3.655E-01	 4.943E+00	 7.961E+00	 1.494E-01	-2.922E-02	 3.555E+01	 2.669E+01	 3.618E+01	 4.567E-02	-2.318E-02	-6.082E-02	-7.185E-02	-2.601E+01	 5.743E-01	 6.053E+00	 9.955E+00	 1.621E+00	 5.752E+02	 1.188E+03	 1.247E+01	-6.949E-01	 1.163E+00	 1.247E+01	-6.949E-01	 1.163E+00	 1.125E+00	-7.758E+01	-6.796E-02
   10.9600	 1.039E+01	-6.000E+00	 0.000E+00	 3.277E+02	-2.654E-01	 5.048E+00	 2.407E+00	 1.479E-01	-2.838E-02	 3.547E+01	 2.505E+01	 3.630E+01	 4.550E-02	-2.315E-02	-4.937E-02	-7.814E-02	-2.599E+01	 6.821E-01	 4.646E+00	 9.396E+00	 1.564E+00	 5.763E+02	 1.185E+03	 1.250E+01	-7.553E-01	 1.270E+00	 1.250E+01	-7.553E-01	 1.270E+00	 1.149E+00	-7.757E+01	-7.267E-02
   10.9800	 1.039E+01	-6.000E+00	 0.000E+00	 3.342E+02	-1.644E-01	 5.036E+00	-3.638E+00	 1.475E-01	-2.748E-02	 3.545E+01	 2.312E+01	 3.642E+01	 4.532E-02	-2.314E-02	-4.447E-02	-7.769E-02	-2.598E+01	 7.568E-01	 2.746E+00	 8.821E+00	 1.374E+00	 5.782E+02	 1.179E+03	 1.252E+01	-8.066E-01	 1.383E+00	 1.252E+01	-8.066E-01	 1.383E+00	 1.152E+00	-7.755E+01	-7.989E-02
   11.0000	 1.039E+01	-6.000E+00	 0.000E+00	 3.407E+02	-6.475E-02	 4.908E+00	-8.943E+00	 1.482E-01	-2.654E-02	 3.555E+01	 2.101E+01	 3.646E+01	 4.512E-02	-2.317E-02	-4.125E-02	-6.815E-02	-2.596E+01	 7.898E-01	 5.337E-01	 8.278E+00	 1.068E+00	 5.802E+02	 1.172E+03	 1.253E+01	-8.477E-01	 1.500E+00	 1.253E+01	-8.477E-01	 1.500E+00	 1.135E+00	-7.753E+01	-8.891E-02
   11.0200	 1.039E+01	-6.000E+00	 0.000E+00	 3.472E+02	 3.134E-02	 4.690E+00	-1.232E+01	 1.495E-01	-2.566E-02	 3.577E+01	 1.890E+01	 3.644E+01	 4.490E-02	-2.323E-02	-3.571E-02	-5.018E-02	-2.595E+01	 7.786E-01	-1.630E+00	 7.814E+00	 6.773E-01	 5.822E+02	 1.164E+03	 1.253E+01	-8.779E-01	 1.619E+00	 1.253E+01	-8.779E-01	 1.619E+00	 1.106E+00	-7.752E+01	-9.864E-02
   11.0400	 1.039E+01	-6.000E+00	 0.000E+00	 3.537E+02	 1.227E-01	 4.459E+00	-9.721E+00	 1.510E-01	-2.490E-02	 3.586E+01	 1.679E+01	 3.636E+01	 4.467E-02	-2.330E-02	-3.279E-02	-2.354E-02	-2.593E+01	 7.234E-01	-3.968E+00	 7.485E+00	 2.039E-01	 5.846E+02	 1.155E+03	 1.253E+01	-8.962E-01	 1.739E+00	 1.253E+01	-8.962E-01	 1.739E+00	 1.070E+00	-7.750E+01	-1.081E-01
   11.0600	 1.039E+01	-6.000E+00	 0.000E+00	 2.439E-01	 2.096E-01	 4.234E+00	-4.976E+00	 1.524E-01	-2.405E-02	 3.553E+01	 1.473E+01	 3.635E+01	 4.443E-02	-2.339E-02	-2.195E-02	 1.333E-03	-2.592E+01	 6.231E-01	-6.045E+00	 7.311E+00	-3.252E-01	 5.878E+02	 1.148E+03	 1.251E+01	-9.022E-01	 1.860E+00	 1.251E+01	-9.022E-01	 1.860E+00	 1.024E+00	-7.749E+01	-1.165E-01
   11.0800	 1.039E+01	-6.000E+00	 0.000E+00	 6.758E+00	 2.965E-01	 4.575E+00	 2.585E+01	 1.521E-01	-2.233E-02	 3.302E+01	 1.154E+01	 3.578E+01	 4.417E-02	-2.347E-02	-6.864E-02	 5.750E-02	-2.591E+01	 4.578E-01	-1.110E+01	 7.704E+00	-1.033E+00	 5.916E+02	 1.141E+03	 1.249E+01	-8.955E-01	 1.981E+00	 1.249E+01	-8.955E-01	 1.981E+00	 9.746E-01	-7.749E+01	-1.218E-01
   11.1000	 1.039E+01	-6.000E+00	 0.000E+00	 1.327E+01	 3.894E-01	 4.516E+00	-3.245E+01	 1.519E-01	-2.039E-02	 3.309E+01	 8.029E+00	 3.479E+01	 4.389E-02	-2.353E-02	-2.073E-02	 6.782E-02	-2.590E+01	 1.912E-01	-1.452E+01	 8.127E+00	-1.741E+00	 5.968E+02	 1.137E+03	 1.246E+01	-8.756E-01	 2.096E+00	 1.246E+01	-8.756E-01	 2.096E+00	 8.648E-01	-7.746E+01	-1.252E-01
   11.1200	 1.039E+01	-6.000E+00	 0.000E+00	 1.978E+01	 4.718E-01	 3.711E+00	-3.651E+01	 1.485E-01	-1.953E-02	 3.487E+01	 6.783E+00	 3.435E+01	 4.361E-02	-2.357E-02	 7.573E-02	 3.782E-02	-2.590E+01	-7.956E-02	-1.176E+01	 8.028E+00	-2.107E+00	 6.014E+02	 1.130E+03	 1.243E+01	-8.428E-01	 2.188E+00	 1.243E+01	-8.428E-01	 2.188E+00	 7.771E-01	-7.744E+01	-1.277E-01
   11.1400	 1.039E+01	-6.000E+00	 0.000E+00	 2.630E+01	 5.403E-01	 3.208E+00	-1.715E+01	 1.430E-01	-1.952E-02	 3.647E+01	 6.786E+00	 3.505E+01	 4.335E-02	-2.359E-02	 1.333E-01	 9.963E-03	-2.591E+01	-2.706E-01	-7.613E+00	 8.122E+00	-2.266E+00	 6.028E+02	 1.119E+03	 1.239E+01	-7.978E-01	 2.272E+00	 1.239E+01	-7.978E-01	 2.272E+00	 8.280E-01	-7.746E+01	-1.300E-01
   11.1600	 1.039E+01	-6.000E+00	 0.000E+00	 3.281E+01	 6.011E-01	 2.859E+00	-1.947E+01	 1.390E-01	-1.924E-02	 3.684E+01	 5.953E+00	 3.633E+01	 4.315E-02	-2.360E-02	 1.172E-01	 2.536E-02	-2.591E+01	-4.071E-01	-6.707E+00	 8.550E+00	-2.558E+00	 5.998E+02	 1.106E+03	 1.234E+01	-7.418E-01	 2.371E+00	 1.234E+01	-7.418E-01	 2.371E+00	 9.126E-01	-7.750E+01	-1.345E-01
   11.1800	 1.039E+01	-6.000E+00	 0.000E+00	 3.932E+01	 6.544E-01	 2.485E+00	-1.573E+01	 1.377E-01	-1.812E-02	 3.606E+01	 3.788E+00	 3.719E+01	 4.299E-02	-2.361E-02	 6.814E-02	 7.324E-02	-2.592E+01	-5.613E-01	-9.041E+00	 9.264E+00	-2.968E+00	 5.945E+02	 1.095E+03	 1.227E+01	-6.758E-01	 2.478E+00	 1.227E+01	-6.758E-01	 2.478E+00	 8.909E-01	-7.752E+01	-1.402E-01
   11.2000	 1.039E+01	-6.000E+00	 0.000E+00	 4.583E+01	 7.019E-01	 2.300E+00	-4.022E+00	 1.384E-01	-1.647E-02	 3.532E+01	 7.666E-01	 3.715E+01	 4.286E-02	-2.358E-02	 5.489E-02	 1.045E-01	-2.594E+01	-7.697E-01	-1.153E+01	 1.030E+01	-3.219E+00	 5.905E+02	 1.092E+03	 1.221E+01	-6.010E-01	 2.574E+00	 1.221E+01	-6.010E-01	 2.574E+00	 7.427E-01	-7.751E+01	-1.442E-01
   11.2200	 1.039E+01	-6.000E+00	 0.000E+00	 5.235E+01	 7.473E-01	 2.245E+00	-3.547E+00	 1.401E-01	-1.498E-02	 3.567E+01	-2.112E+00	 3.657E+01	 4.275E-02	-2.352E-02	 1.020E-01	 8.750E-02	-2.595E+01	-1.003E+00	-1.123E+01	 1.141E+01	-3.146E+00	 5.896E+02	 1.096E+03	 1.214E+01	-5.187E-01	 2.644E+00	 1.214E+01	-5.187E-01	 2.644E+00	 5.308E-01	-7.748E+01	-1.459E-01
   11.2400	 1.039E+01	-6.000E+00	 0.000E+00	 5.886E+01	 7.911E-01	 2.105E+00	-1.103E+01	 1.422E-01	-1.427E-02	 3.686E+01	-3.855E+00	 3.618E+01	 4.268E-02	-2.342E-02	 1.664E-01	 3.494E-02	-2.597E+01	-1.197E+00	-7.636E+00	 1.227E+01	-2.776E+00	 5.902E+02	 1.101E+03	 1.207E+01	-4.304E-01	 2.687E+00	 1.207E+01	-4.304E-01	 2.687E+00	 3.328E-01	-7.744E+01	-1.464E-01
   11.2600	 1.039E+01	-6.000E+00	 0.000E+00	 6.538E+01	 8.304E-01	 1.795E+00	-2.008E+01	 1.449E-01	-1.439E-02	 3.795E+01	-4.295E+00	 3.636E+01	 4.268E-02	-2.330E-02	 1.898E-01	-1.534E-02	-2.600E+01	-1.298E+00	-2.404E+00	 1.277E+01	-2.238E+00	 5.891E+02	 1.102E+03	 1.199E+01	-3.379E-01	 2.712E+00	 1.199E+01	-3.379E-01	 2.712E+00	 1.856E-01	-7.740E+01	-1.473E-01
   11.2800	 1.039E+01	-6.000E+00	 0.000E+00	 7.189E+01	 8.616E-01	 1.298E+00	-2.946E+01	 1.479E-01	-1.487E-02	 3.835E+01	-4.095E+00	 3.685E+01	 4.275E-02	-2.320E-02	 1.553E-01	-3.409E-02	-2.603E+01	-1.296E+00	 2.311E+00	 1.300E+01	-1.685E+00	 5.842E+02	 1.100E+03	 1.192E+01	-2.430E-01	 2.728E+00	 1.192E+01	-2.430E-01	 2.728E+00	 6.446E-02	-7.738E+01	-1.500E-01
   11.3000	 1.039E+01	-6.000E+00	 0.000E+00	 7.841E+01	 8.811E-01	 6.317E-01	-3.657E+01	 1.508E-01	-1.520E-02	 3.819E+01	-4.016E+00	 3.715E+01	 4.289E-02	-2.310E-02	 9.650E-02	-2.358E-02	-2.605E+01	-1.217E+00	 5.374E+00	 1.313E+01	-1.202E+00	 5.766E+02	 1.099E+03	 1.183E+01	-1.472E-01	 2.735E+00	 1.183E+01	-1.472E-01	 2.735E+00	-7.621E-02	-7.737E+01	-1.553E-01
   11.3200	 1.039E+01	-6.000E+00	 0.000E+00	 8.492E+01	 8.862E-01	-1.366E-01	-3.962E+01	 1.525E-01	-1.515E-02	 3.798E+01	-4.349E+00	 3.706E+01	 4.306E-02	-2.302E-02	 5.963E-02	-1.042E-02	-2.607E+01	-1.090E+00	 7.155E+00	 1.325E+01	-7.682E-01	 5.696E+02	 1.103E+03	 1.175E+01	-5.188E-02	 2.727E+00	 1.175E+01	-5.188E-02	 2.727E+00	-2.507E-01	-7.736E+01	-1.635E-01
   11.3400	 1.039E+01	-6.000E+00	 0.000E+00	 9.144E+01	 8.755E-01	-9.340E-01	-3.979E+01	 1.523E-01	-1.486E-02	 3.804E+01	-4.824E+00	 3.675E+01	 4.326E-02	-2.293E-02	 6.097E-02	-1.814E-02	-2.609E+01	-9.321E-01	 8.677E+00	 1.334E+01	-3.321E-01	 5.659E+02	 1.113E+03	 1.167E+01	 4.165E-02	 2.702E+00	 1.167E+01	 4.165E-02	 2.702E+00	-4.359E-01	-7.735E+01	-1.737E-01
   11.3600	 1.039E+01	-6.000E+00	 0.000E+00	 9.795E+01	 8.489E-01	-1.717E+00	-3.826E+01	 1.507E-01	-1.462E-02	 3.823E+01	-4.907E+00	 3.652E+01	 4.349E-02	-2.286E-02	 7.868E-02	-4.772E-02	-2.611E+01	-7.414E-01	 1.041E+01	 1.328E+01	 1.143E-01	 5.659E+02	 1.126E+03	 1.159E+01	 1.324E-01	 2.660E+00	 1.159E+01	 1.324E-01	 2.660E+00	-6.020E-01	-7.734E+01	-1.845E-01
   11.3800	 1.039E+01	-6.000E+00	 0.000E+00	 1.045E+02	 8.071E-01	-2.454E+00	-3.518E+01	 1.484E-01	-1.471E-02	 3.823E+01	-4.247E+00	 3.648E+01	 4.374E-02	-2.281E-02	 7.936E-02	-8.122E-02	-2.612E+01	-5.170E-01	 1.192E+01	 1.300E+01	 5.329E-01	 5.678E+02	 1.138E+03	 1.151E+01	 2.196E-01	 2.606E+00	 1.151E+01	 2.196E-01	 2.606E+00	-7.392E-01	-7.733E+01	-1.939E-01
   11.4000	 1.039E+01	-6.000E+00	 0.000E+00	 1.110E+02	 7.513E-01	-3.116E+00	-3.081E+01	 1.464E-01	-1.515E-02	 3.789E+01	-2.900E+00	 3.652E+01	 4.403E-02	-2.279E-02	 4.924E-02	-9.986E-02	-2.613E+01	-2.716E-01	 1.241E+01	 1.251E+01	 8.793E-01	 5.694E+02	 1.148E+03	 1.143E+01	 3.024E-01	 2.542E+00	 1.143E+01	 3.024E-01	 2.542E+00	-8.581E-01	-7.733E+01	-2.005E-01
   11.4200	 1.039E+01	-6.000E+00	 0.000E+00	 1.175E+02	 6.832E-01	-3.676E+00	-2.533E+01	 1.452E-01	-1.583E-02	 3.737E+01	-1.238E+00	 3.647E+01	 4.433E-02	-2.280E-02	 7.841E-04	-9.808E-02	-2.614E+01	-2.967E-02	 1.160E+01	 1.192E+01	 1.145E+00	 5.698E+02	 1.155E+03	 1.135E+01	 3.802E-01	 2.469E+00	 1.135E+01	 3.802E-01	 2.469E+00	-9.691E-01	-7.734E+01	-2.036E-01
   11.4400	 1.039E+01	-6.000E+00	 0.000E+00	 1.240E+02	 6.049E-01	-4.135E+00	-2.056E+01	 1.447E-01	-1.656E-02	 3.695E+01	 3.709E-01	 3.629E+01	 4.463E-02	-2.286E-02	-4.001E-02	-8.543E-02	-2.613E+01	 1.866E-01	 9.956E+00	 1.133E+01	 1.347E+00	 5.697E+02	 1.162E+03	 1.128E+01	 4.524E-01	 2.385E+00	 1.128E+01	 4.524E-01	 2.385E+00	-1.068E+00	-7.736E+01	-2.037E-01
   11.4600	 1.039E+01	-6.000E+00	 0.000E+00	 1.305E+02	 5.184E-01	-4.497E+00	-1.567E+01	 1.449E-01	-1.724E-02	 3.676E+01	 1.800E+00	 3.612E+01	 4.492E-02	-2.295E-02	-5.913E-02	-7.450E-02	-2.613E+01	 3.681E-01	 8.236E+00	 1.078E+01	 1.507E+00	 5.709E+02	 1.170E+03	 1.121E+01	 5.184E-01	 2.290E+00	 1.121E+01	 5.184E-01	 2.290E+00	-1.135E+00	-7.739E+01	-2.020E-01
   11.4800	 1.039E+01	-6.000E+00	 0.000E+00	 1.370E+02	 4.257E-01	-4.761E+00	-1.076E+01	 1.453E-01	-1.789E-02	 3.673E+01	 3.175E+00	 3.606E+01	 4.519E-02	-2.307E-02	-6.235E-02	-7.037E-02	-2.612E+01	 5.187E-01	 6.891E+00	 1.026E+01	 1.619E+00	 5.745E+02	 1.180E+03	 1.115E+01	 5.777E-01	 2.189E+00	 1.115E+01	 5.777E-01	 2.189E+00	-1.156E+00	-7.743E+01	-1.992E-01
   11.5000	 1.039E+01	-6.000E+00	 0.000E+00	 1.436E+02	 3.286E-01	-4.928E+00	-5.828E+00	 1.459E-01	-1.862E-02	 3.670E+01	 4.728E+00	 3.614E+01	 4.543E-02	-2.322E-02	-6.220E-02	-7.022E-02	-2.611E+01	 6.448E-01	 5.689E+00	 9.718E+00	 1.641E+00	 5.803E+02	 1.189E+03	 1.109E+01	 6.298E-01	 2.084E+00	 1.109E+01	 6.298E-01	 2.084E+00	-1.135E+00	-7.745E+01	-1.952E-01
   11.5200	 1.039E+01	-6.000E+00	 0.000E+00	 1.501E+02	 2.293E-01	-4.988E+00	-1.045E-01	 1.466E-01	-1.949E-02	 3.660E+01	 6.588E+00	 3.627E+01	 4.565E-02	-2.340E-02	-6.788E-02	-6.696E-02	-2.609E+01	 7.438E-01	 4.124E+00	 9.146E+00	 1.534E+00	 5.875E+02	 1.196E+03	 1.105E+01	 6.743E-01	 1.981E+00	 1.105E+01	 6.743E-01	 1.981E+00	-1.090E+00	-7.748E+01	-1.895E-01
   11.5400	 1.039E+01	-6.000E+00	 0.000E+00	 1.566E+02	 1.299E-01	-4.931E+00	 5.744E+00	 1.471E-01	-2.049E-02	 3.651E+01	 8.678E+00	 3.637E+01	 4.584E-02	-2.360E-02	-7.823E-02	-5.586E-02	-2.608E+01	 8.063E-01	 2.065E+00	 8.574E+00	 1.294E+00	 5.950E+02	 1.200E+03	 1.101E+01	 7.109E-01	 1.878E+00	 1.101E+01	 7.109E-01	 1.878E+00	-1.038E+00	-7.750E+01	-1.822E-01
   11.5600	 1.039E+01	-6.000E+00	 0.000E+00	 1.631E+02	 3.274E-02	-4.767E+00	 1.044E+01	 1.476E-01	-2.153E-02	 3.648E+01	 1.082E+01	 3.638E+01	 4.600E-02	-2.382E-02	-8.754E-02	-3.603E-02	-2.606E+01	 8.250E-01	-1.898E-01	 8.053E+00	 9.497E-01	 6.023E+02	 1.203E+03	 1.099E+01	 7.391E-01	 1.776E+00	 1.099E+01	 7.391E-01	 1.776E+00	-9.907E-01	-7.752E+01	-1.738E-01
   11.5800	 1.039E+01	-6.000E+00	 0.000E+00	 1.696E+02	-6.033E-02	-4.534E+00	 1.206E+01	 1.481E-01	-2.256E-02	 3.650E+01	 1.290E+01	 3.635E+01	 4.612E-02	-2.406E-02	-9.451E-02	-8.357E-03	-2.605E+01	 7.993E-01	-2.381E+00	 7.630E+00	 5.248E-01	 6.092E+02	 1.204E+03	 1.097E+01	 7.586E-01	 1.675E+00	 1.097E+01	 7.586E-01	 1.675E+00	-9.469E-01	-7.753E+01	-1.656E-01