
Predictions were generated on 29-Sep-2025 at 15:43:58 using HydroDyn Driver, compiled on Sep 29 2025 at 14:49:13 as a 64-bit application using double precision at commit v4.1.2-165-g1d0ee6c2-dirty
 linked with  NWTC Subroutine Library

Description from the driver input file: NREL 5.0 MW offshore baseline floating platform HydroDyn input properties for the OC4 Semi-submersible.

Time	Wave1Elev	HydroFxi	HydroFyi	HydroFzi	HydroMxi	HydroMyi	HydroMzi	B1Surge	B1Sway	B1Heave	B1Roll	B1Pitch	B1Yaw	B1TVxi	B1TVyi	B1TVzi	B1RVxi	B1RVyi	B1RVzi	B1TAxi	B1TAyi	B1TAzi	B1RAxi	B1RAyi	B1RAzi	B1WvsFxi	B1WvsFyi	B1WvsFzi	B1WvsMxi	B1WvsMyi	B1WvsMzi	B1HDSFxi	B1HDSFyi	B1HDSFzi	B1HDSMxi	B1HDSMyi	B1HDSMzi	B1RdtFxi	B1RdtFyi	B1RdtFzi	B1RdtMxi	B1RdtMyi	B1RdtMzi
(s)	(m)	(N)	(N)	(N)	(N-m)	(N-m)	(N-m)	(m)	(m)	(m)	(rad)	(rad)	(rad)	(m/s)	(m/s)	(m/s)	(rad/s)	(rad/s)	(rad/s)	(m/s^2)	(m/s^2)	(m/s^2)	(rad/s^2)	(rad/s^2)	(rad/s^2)	(N)	(N)	(N)	(N-m)	(N-m)	(N-m)	(N)	(N)	(N)	(N-m)	(N-m)	(N-m)	(N)	(N)	(N)	(N-m)	(N-m)	(N-m)
    0.0000	   9.252579E-01	  -5.434886E+06	  -3.334440E+06	   1.392987E+08	  -3.726076E+07	   7.411810E+07	  -3.546747E+07	   5.000000E+00	   0.000000E+00	   0.000000E+00	   0.000000E+00	   3.316126E-02	   0.000000E+00	   2.755430E-05	  -5.157693E-04	   0.000000E+00	   0.000000E+00	   0.000000E+00	   1.696222E-01	   1.680969E-01	  -9.889536E-06	   2.403348E-02	   3.464371E-06	  -6.628965E-03	  -1.730050E-05	  -3.780194E+06	  -3.334209E+06	  -2.391282E+05	  -3.723662E+07	   6.932850E+07	  -3.555171E+07	   0.000000E+00	   0.000000E+00	   1.398911E+08	   0.000000E+00	  -5.732057E+07	   0.000000E+00	  -1.654693E+06	  -2.306952E+02	  -3.532735E+05	  -2.414291E+04	   6.211018E+07	   8.423844E+04
    0.0125	   9.377514E-01	  -5.431144E+06	  -3.338540E+06	   1.392831E+08	  -3.679667E+07	   7.345502E+07	  -3.825271E+07	   5.000107E+00	   2.700060E-06	   1.465011E-05	   1.805591E-08	   3.315718E-02	   2.117571E-03	   2.200831E-03	  -3.317225E-04	   2.881337E-04	   4.642330E-07	  -8.053311E-05	   1.695680E-01	   1.700431E-01	   2.073518E-03	   2.373930E-02	   2.364768E-05	  -6.569766E-03	  -5.567211E-04	  -3.768863E+06	  -3.323098E+06	  -2.590023E+05	  -3.657116E+07	   6.892810E+07	  -3.520056E+07	   0.000000E+00	   0.000000E+00	   1.398911E+08	   1.213905E+05	  -5.732199E+07	   0.000000E+00	  -1.662281E+06	  -1.544305E+04	  -3.489493E+05	  -3.468991E+05	   6.184891E+07	  -3.052144E+06
    0.0250	   9.501520E-01	  -5.427114E+06	  -3.342316E+06	   1.392675E+08	  -3.632690E+07	   7.278680E+07	  -3.527067E+07	   5.000214E+00	   5.400120E-06	   2.930022E-05	   3.611182E-08	   3.315310E-02	   4.235142E-03	   4.374108E-03	  -1.476757E-04	   5.762675E-04	   1.269533E-06	  -1.610639E-04	   1.695139E-01	   1.719894E-01	   4.156925E-03	   2.344512E-02	   4.357153E-05	  -6.510510E-03	  -1.096142E-03	  -3.757191E+06	  -3.311657E+06	  -2.788567E+05	  -3.590175E+07	   6.852228E+07	  -3.484673E+07	   0.000000E+00	   0.000000E+00	   1.398910E+08	   2.427869E+05	  -5.732316E+07	   0.000000E+00	  -1.669923E+06	  -3.065912E+04	  -3.446257E+05	  -6.679389E+05	   6.158768E+07	  -4.239418E+05
    0.0375	   9.624565E-01	  -5.422860E+06	  -3.345734E+06	   1.392520E+08	  -3.585148E+07	   7.211412E+07	  -3.804399E+07	   5.000321E+00	   8.100180E-06	   4.395034E-05	   5.416774E-08	   3.314902E-02	   6.352714E-03	   6.547385E-03	   3.637114E-05	   8.644012E-04	   2.415891E-06	  -2.415913E-04	   1.694597E-01	   1.739356E-01	   6.240333E-03	   2.315094E-02	   6.323578E-05	  -6.451201E-03	  -1.635562E-03	  -3.745180E+06	  -3.299894E+06	  -2.986855E+05	  -3.522864E+07	   6.811123E+07	  -3.449027E+07	   0.000000E+00	   0.000000E+00	   1.398910E+08	   3.641889E+05	  -5.732407E+07	   0.000000E+00	  -1.677680E+06	  -4.583982E+04	  -3.403029E+05	  -9.870287E+05	   6.132696E+07	  -3.553714E+06
    0.0500	   9.746615E-01	  -5.418382E+06	  -3.348815E+06	   1.392364E+08	  -3.537068E+07	   7.143708E+07	  -4.080672E+07	   5.000429E+00	   1.080024E-05	   5.860045E-05	   7.222365E-08	   3.314494E-02	   8.470285E-03	   8.720662E-03	   2.204179E-04	   1.152535E-03	   3.903297E-06	  -3.221142E-04	   1.694056E-01	   1.758818E-01	   8.323740E-03	   2.285676E-02	   8.264030E-05	  -6.391837E-03	  -2.174983E-03	  -3.732834E+06	  -3.287808E+06	  -3.184831E+05	  -3.455198E+07	   6.769506E+07	  -3.413123E+07	   0.000000E+00	   0.000000E+00	   1.398909E+08	   4.855958E+05	  -5.732472E+07	   0.000000E+00	  -1.685549E+06	  -6.100688E+04	  -3.359810E+05	  -1.304298E+06	   6.106674E+07	  -6.675491E+06
    0.0625	   9.867640E-01	  -5.413688E+06	  -3.351568E+06	   1.392209E+08	  -3.488475E+07	   7.075573E+07	  -4.355586E+07	   5.000535E+00	   1.350030E-05	   7.325057E-05	   9.027956E-08	   3.314087E-02	   1.058786E-02	   1.089394E-02	   4.044648E-04	   1.440669E-03	   5.731734E-06	  -4.026314E-04	   1.693514E-01	   1.778280E-01	   1.040715E-02	   2.256259E-02	   1.017849E-04	  -6.332421E-03	  -2.714403E-03	  -3.720156E+06	  -3.275408E+06	  -3.382436E+05	  -3.387201E+07	   6.727382E+07	  -3.376966E+07	   0.000000E+00	   0.000000E+00	   1.398908E+08	   6.070071E+05	  -5.732512E+07	   0.000000E+00	  -1.693532E+06	  -7.616038E+04	  -3.316601E+05	  -1.619748E+06	   6.080703E+07	  -9.786206E+06
    0.0750	   9.987605E-01	  -5.408777E+06	  -3.353993E+06	   1.392055E+08	  -3.439389E+07	   7.007034E+07	  -4.628838E+07	   5.000643E+00	   1.620036E-05	   8.790068E-05	   1.083355E-07	   3.313679E-02	   1.270543E-02	   1.306722E-02	   5.885116E-04	   1.728802E-03	   7.901185E-06	  -4.831421E-04	   1.692972E-01	   1.797743E-01	   1.249055E-02	   2.226841E-02	   1.206696E-04	  -6.272953E-03	  -3.253824E-03	  -3.707149E+06	  -3.262693E+06	  -3.579613E+05	  -3.318893E+07	   6.684776E+07	  -3.340558E+07	   0.000000E+00	   0.000000E+00	   1.398908E+08	   7.284223E+05	  -5.732526E+07	   0.000000E+00	  -1.701628E+06	  -9.130042E+04	  -3.273401E+05	  -1.933378E+06	   6.054784E+07	  -1.288280E+07
    0.0875	   1.010648E+00	  -5.403652E+06	  -3.356098E+06	   1.391901E+08	  -3.389832E+07	   6.938100E+07	  -4.900132E+07	   5.000750E+00	   1.890042E-05	   1.025508E-04	   1.263914E-07	   3.313271E-02	   1.482300E-02	   1.524049E-02	   7.725584E-04	   2.016936E-03	   1.041163E-05	  -5.636450E-04	   1.692431E-01	   1.817205E-01	   1.457396E-02	   2.197423E-02	   1.392941E-04	  -6.213434E-03	  -3.793245E-03	  -3.693816E+06	  -3.249671E+06	  -3.776304E+05	  -3.250297E+07	   6.641696E+07	  -3.303907E+07	   0.000000E+00	   0.000000E+00	   1.398907E+08	   8.498408E+05	  -5.732514E+07	   0.000000E+00	  -1.709837E+06	  -1.064271E+05	  -3.230210E+05	  -2.245189E+06	   6.028918E+07	  -1.596225E+07
    0.1000	   1.022423E+00	  -5.398321E+06	  -3.357885E+06	   1.391747E+08	  -3.339823E+07	   6.868781E+07	  -5.169166E+07	   5.000857E+00	   2.160048E-05	   1.172009E-04	   1.444473E-07	   3.312863E-02	   1.694057E-02	   1.741377E-02	   9.566052E-04	   2.305070E-03	   1.326305E-05	  -6.441391E-04	   1.691889E-01	   1.836667E-01	   1.665737E-02	   2.168005E-02	   1.576583E-04	  -6.153864E-03	  -4.332665E-03	  -3.680163E+06	  -3.236345E+06	  -3.972452E+05	  -3.181431E+07	   6.598154E+07	  -3.267015E+07	   0.000000E+00	   0.000000E+00	   1.398907E+08	   9.712621E+05	  -5.732476E+07	   0.000000E+00	  -1.718158E+06	  -1.215404E+05	  -3.187029E+05	  -2.555182E+06	   6.003103E+07	  -1.902152E+07
    0.1125	   1.034090E+00	  -5.387527E+06	  -3.362356E+06	   1.391610E+08	  -3.273228E+07	   6.823118E+07	  -5.437403E+07	   5.001192E+00	   4.668119E-05	   1.588866E-04	   3.529384E-08	   3.311679E-02	   1.905273E-02	   1.975530E-02	   1.335590E-03	   2.555639E-03	   1.251890E-05	  -7.198508E-04	   1.691080E-01	   1.841325E-01	   1.963654E-02	   2.126994E-02	   1.428255E-04	  -6.145497E-03	  -4.868423E-03	  -3.666178E+06	  -3.222707E+06	  -4.168148E+05	  -3.112260E+07	   6.554124E+07	  -3.229857E+07	   0.000000E+00	   0.000000E+00	   1.398905E+08	   1.092383E+06	  -5.732709E+07	   0.000000E+00	  -1.721349E+06	  -1.396487E+05	  -3.126817E+05	  -2.702063E+06	   6.001703E+07	  -2.207546E+07
    0.1250	   1.045656E+00	  -5.376522E+06	  -3.366517E+06	   1.391474E+08	  -3.206268E+07	   6.777127E+07	  -5.702690E+07	   5.001526E+00	   7.176191E-05	   2.005723E-04	  -7.385962E-08	   3.310494E-02	   2.116488E-02	   2.209683E-02	   1.714575E-03	   2.806208E-03	   1.209465E-05	  -7.955682E-04	   1.690272E-01	   1.845982E-01	   2.261572E-02	   2.085984E-02	   1.279459E-04	  -6.137219E-03	  -5.404182E-03	  -3.651855E+06	  -3.208751E+06	  -4.363473E+05	  -3.042752E+07	   6.509587E+07	  -3.192410E+07	   0.000000E+00	   0.000000E+00	   1.398904E+08	   1.213518E+06	  -5.732916E+07	   0.000000E+00	  -1.724667E+06	  -1.577657E+05	  -3.066614E+05	  -2.848686E+06	   6.000456E+07	  -2.510280E+07
    0.1375	   1.057117E+00	  -5.365312E+06	  -3.370376E+06	   1.391337E+08	  -3.138967E+07	   6.730825E+07	  -5.964696E+07	   5.001861E+00	   9.684262E-05	   2.422580E-04	  -1.830131E-07	   3.309310E-02	   2.327704E-02	   2.443836E-02	   2.093561E-03	   3.056777E-03	   1.199032E-05	  -8.712903E-04	   1.689463E-01	   1.850639E-01	   2.559489E-02	   2.044973E-02	   1.130198E-04	  -6.129032E-03	  -5.939942E-03	  -3.637198E+06	  -3.194480E+06	  -4.558370E+05	  -2.972927E+07	   6.464556E+07	  -3.154681E+07	   0.000000E+00	   0.000000E+00	   1.398902E+08	   1.334667E+06	  -5.733098E+07	   0.000000E+00	  -1.728115E+06	  -1.758956E+05	  -3.006419E+05	  -2.995074E+06	   5.999366E+07	  -2.810015E+07
    0.1500	   1.068469E+00	  -5.353900E+06	  -3.373938E+06	   1.391201E+08	  -3.071346E+07	   6.684220E+07	  -6.223134E+07	   5.002196E+00	   1.219233E-04	   2.839438E-04	  -2.921666E-07	   3.308126E-02	   2.538920E-02	   2.677990E-02	   2.472545E-03	   3.307346E-03	   1.220592E-05	  -9.470160E-04	   1.688654E-01	   1.855297E-01	   2.857406E-02	   2.003963E-02	   9.804750E-05	  -6.120935E-03	  -6.475704E-03	  -3.622210E+06	  -3.179900E+06	  -4.752784E+05	  -2.902806E+07	   6.419042E+07	  -3.116673E+07	   0.000000E+00	   0.000000E+00	   1.398900E+08	   1.455829E+06	  -5.733254E+07	   0.000000E+00	  -1.731691E+06	  -1.940383E+05	  -2.946232E+05	  -3.141228E+06	   5.998432E+07	  -3.106462E+07
    0.1625	   1.079711E+00	  -5.342291E+06	  -3.377210E+06	   1.391066E+08	  -3.003427E+07	   6.637330E+07	  -6.477724E+07	   5.002531E+00	   1.470041E-04	   3.256295E-04	  -4.013200E-07	   3.306941E-02	   2.750136E-02	   2.912143E-02	   2.851531E-03	   3.557916E-03	   1.274147E-05	  -1.022744E-03	   1.687846E-01	   1.859954E-01	   3.155324E-02	   1.962952E-02	   8.302928E-05	  -6.112928E-03	  -7.011468E-03	  -3.606896E+06	  -3.165016E+06	  -4.946658E+05	  -2.832412E+07	   6.373062E+07	  -3.078392E+07	   0.000000E+00	   0.000000E+00	   1.398899E+08	   1.577004E+06	  -5.733385E+07	   0.000000E+00	  -1.735395E+06	  -2.121940E+05	  -2.886052E+05	  -3.287153E+06	   5.997654E+07	  -3.399333E+07
    0.1750	   1.090838E+00	  -5.330486E+06	  -3.380194E+06	   1.390932E+08	  -2.935233E+07	   6.590170E+07	  -6.728186E+07	   5.002865E+00	   1.720848E-04	   3.673152E-04	  -5.104735E-07	   3.305757E-02	   2.961352E-02	   3.146296E-02	   3.230516E-03	   3.808485E-03	   1.359697E-05	  -1.098474E-03	   1.687037E-01	   1.864612E-01	   3.453241E-02	   1.921941E-02	   6.796549E-05	  -6.105012E-03	  -7.547233E-03	  -3.591258E+06	  -3.149831E+06	  -5.139938E+05	  -2.761767E+07	   6.326628E+07	  -3.039841E+07	   0.000000E+00	   0.000000E+00	   1.398897E+08	   1.698190E+06	  -5.733490E+07	   0.000000E+00	  -1.739228E+06	  -2.303628E+05	  -2.825881E+05	  -3.432853E+06	   5.997031E+07	  -3.688346E+07
    0.1875	   1.101849E+00	  -5.318490E+06	  -3.382896E+06	   1.390797E+08	  -2.866785E+07	   6.542750E+07	  -6.974251E+07	   5.003200E+00	   1.971655E-04	   4.090009E-04	  -6.196269E-07	   3.304572E-02	   3.172567E-02	   3.380449E-02	   3.609501E-03	   4.059054E-03	   1.477245E-05	  -1.174205E-03	   1.686228E-01	   1.869269E-01	   3.751159E-02	   1.880931E-02	   5.285643E-05	  -6.097187E-03	  -8.082999E-03	  -3.575303E+06	  -3.134352E+06	  -5.332564E+05	  -2.690891E+07	   6.279755E+07	  -3.001028E+07	   0.000000E+00	   0.000000E+00	   1.398896E+08	   1.819388E+06	  -5.733569E+07	   0.000000E+00	  -1.743186E+06	  -2.485448E+05	  -2.765717E+05	  -3.578331E+06	   5.996564E+07	  -3.973223E+07
    0.2000	   1.112739E+00	  -5.306305E+06	  -3.385322E+06	   1.390664E+08	  -2.798105E+07	   6.495087E+07	  -7.215649E+07	   5.003535E+00	   2.222462E-04	   4.506866E-04	  -7.287804E-07	   3.303388E-02	   3.383783E-02	   3.614602E-02	   3.988486E-03	   4.309623E-03	   1.626789E-05	  -1.249935E-03	   1.685420E-01	   1.873927E-01	   4.049076E-02	   1.839920E-02	   3.770242E-05	  -6.089452E-03	  -8.618767E-03	  -3.559034E+06	  -3.118582E+06	  -5.524483E+05	  -2.619805E+07	   6.232458E+07	  -2.961957E+07	   0.000000E+00	   0.000000E+00	   1.398894E+08	   1.940597E+06	  -5.733623E+07	   0.000000E+00	  -1.747271E+06	  -2.667399E+05	  -2.705561E+05	  -3.723591E+06	   5.996253E+07	  -4.253692E+07
    0.2125	   1.123515E+00	  -5.294276E+06	  -3.381068E+06	   1.390541E+08	  -2.765111E+07	   6.418782E+07	  -7.450399E+07	   5.004105E+00	   2.953998E-04	   5.152877E-04	  -1.214112E-06	   3.301448E-02	   3.593919E-02	   3.851406E-02	   4.532305E-03	   4.516251E-03	   1.906403E-05	  -1.324569E-03	   1.684072E-01	   1.885276E-01	   4.153159E-02	   1.791935E-02	   9.514299E-05	  -6.034974E-03	  -9.158002E-03	  -3.542440E+06	  -3.102512E+06	  -5.715782E+05	  -2.548475E+07	   6.184706E+07	  -2.922602E+07	   0.000000E+00	   0.000000E+00	   1.398892E+08	   2.061157E+06	  -5.733941E+07	   0.000000E+00	  -1.751836E+06	  -2.785556E+05	  -2.635161E+05	  -4.227523E+06	   5.968017E+07	  -4.527797E+07
    0.2250	   1.134179E+00	  -5.282014E+06	  -3.376508E+06	   1.390418E+08	  -2.731669E+07	   6.341958E+07	  -7.679811E+07	   5.004675E+00	   3.685534E-04	   5.798889E-04	  -1.699443E-06	   3.299509E-02	   3.804055E-02	   4.088210E-02	   5.076123E-03	   4.722879E-03	   2.217389E-05	  -1.399195E-03	   1.682725E-01	   1.896625E-01	   4.257242E-02	   1.743950E-02	   1.523345E-04	  -5.980283E-03	  -9.697236E-03	  -3.525513E+06	  -3.086136E+06	  -5.906541E+05	  -2.476864E+07	   6.136475E+07	  -2.882939E+07	   0.000000E+00	   0.000000E+00	   1.398889E+08	   2.181740E+06	  -5.734234E+07	   0.000000E+00	  -1.756500E+06	  -2.903709E+05	  -2.564767E+05	  -4.729790E+06	   5.939716E+07	  -4.796872E+07
    0.2375	   1.144731E+00	  -5.269520E+06	  -3.371649E+06	   1.390296E+08	  -2.697805E+07	   6.264632E+07	  -7.903543E+07	   5.005245E+00	   4.417070E-04	   6.444901E-04	  -2.184775E-06	   3.297569E-02	   4.014191E-02	   4.325014E-02	   5.619941E-03	   4.929508E-03	   2.559748E-05	  -1.473815E-03	   1.681377E-01	   1.907974E-01	   4.361326E-02	   1.695965E-02	   2.092762E-04	  -5.925377E-03	  -1.023647E-02	  -3.508258E+06	  -3.069460E+06	  -6.096705E+05	  -2.404998E+07	   6.087782E+07	  -2.842974E+07	   0.000000E+00	   0.000000E+00	   1.398887E+08	   2.302344E+06	  -5.734502E+07	   0.000000E+00	  -1.761262E+06	  -3.021898E+05	  -2.494380E+05	  -5.230415E+06	   5.911351E+07	  -5.060570E+07
    0.2500	   1.155167E+00	  -5.256800E+06	  -3.366497E+06	   1.390174E+08	  -2.663537E+07	   6.186821E+07	  -8.121350E+07	   5.005815E+00	   5.148606E-04	   7.090913E-04	  -2.670106E-06	   3.295629E-02	   4.224328E-02	   4.561818E-02	   6.163760E-03	   5.136136E-03	   2.933475E-05	  -1.548426E-03	   1.680030E-01	   1.919323E-01	   4.465409E-02	   1.647980E-02	   2.659676E-04	  -5.870260E-03	  -1.077570E-02	  -3.490679E+06	  -3.052485E+06	  -6.286216E+05	  -2.332894E+07	   6.038643E+07	  -2.802712E+07	   0.000000E+00	   0.000000E+00	   1.398884E+08	   2.422968E+06	  -5.734744E+07	   0.000000E+00	  -1.766122E+06	  -3.140121E+05	  -2.423999E+05	  -5.729392E+06	   5.882921E+07	  -5.318638E+07
    0.2625	   1.165484E+00	  -5.243861E+06	  -3.361059E+06	   1.390053E+08	  -2.628891E+07	   6.108535E+07	  -8.332994E+07	   5.006384E+00	   5.880141E-04	   7.736924E-04	  -3.155438E-06	   3.293690E-02	   4.434464E-02	   4.798622E-02	   6.707578E-03	   5.342764E-03	   3.338571E-05	  -1.623027E-03	   1.678682E-01	   1.930672E-01	   4.569492E-02	   1.599994E-02	   3.224080E-04	  -5.814930E-03	  -1.131493E-02	  -3.472784E+06	  -3.035221E+06	  -6.475022E+05	  -2.260580E+07	   5.989068E+07	  -2.762159E+07	   0.000000E+00	   0.000000E+00	   1.398882E+08	   2.543613E+06	  -5.734960E+07	   0.000000E+00	  -1.771077E+06	  -3.258377E+05	  -2.353624E+05	  -6.226720E+06	   5.854427E+07	  -5.570834E+07
    0.2750	   1.175679E+00	  -5.230700E+06	  -3.355338E+06	   1.389933E+08	  -2.593886E+07	   6.029791E+07	  -8.538242E+07	   5.006954E+00	   6.611677E-04	   8.382936E-04	  -3.640769E-06	   3.291750E-02	   4.644600E-02	   5.035426E-02	   7.251396E-03	   5.549393E-03	   3.775031E-05	  -1.697618E-03	   1.677335E-01	   1.942021E-01	   4.673575E-02	   1.552009E-02	   3.785967E-04	  -5.759391E-03	  -1.185416E-02	  -3.454572E+06	  -3.017671E+06	  -6.663068E+05	  -2.188075E+07	   5.939074E+07	  -2.721322E+07	   0.000000E+00	   0.000000E+00	   1.398879E+08	   2.664278E+06	  -5.735152E+07	   0.000000E+00	  -1.776128E+06	  -3.376667E+05	  -2.283256E+05	  -6.722393E+06	   5.825869E+07	  -5.816919E+07
    0.2875	   1.185751E+00	  -5.217324E+06	  -3.349340E+06	   1.389814E+08	  -2.558548E+07	   5.950608E+07	  -8.736870E+07	   5.007524E+00	   7.343213E-04	   9.028947E-04	  -4.126101E-06	   3.289811E-02	   4.854736E-02	   5.272230E-02	   7.795215E-03	   5.756021E-03	   4.242854E-05	  -1.772197E-03	   1.675988E-01	   1.953370E-01	   4.777658E-02	   1.504024E-02	   4.345331E-04	  -5.703641E-03	  -1.239339E-02	  -3.436052E+06	  -2.999841E+06	  -6.850304E+05	  -2.115403E+07	   5.888678E+07	  -2.680207E+07	   0.000000E+00	   0.000000E+00	   1.398877E+08	   2.784962E+06	  -5.735318E+07	   0.000000E+00	  -1.781273E+06	  -3.494988E+05	  -2.212893E+05	  -7.216410E+06	   5.797248E+07	  -6.056662E+07
    0.3000	   1.195695E+00	  -5.203738E+06	  -3.343073E+06	   1.389695E+08	  -2.522894E+07	   5.870994E+07	  -8.928656E+07	   5.008094E+00	   8.074749E-04	   9.674959E-04	  -4.611432E-06	   3.287871E-02	   5.064872E-02	   5.509034E-02	   8.339033E-03	   5.962649E-03	   4.742036E-05	  -1.846764E-03	   1.674640E-01	   1.964719E-01	   4.881741E-02	   1.456039E-02	   4.902165E-04	  -5.647681E-03	  -1.293262E-02	  -3.417228E+06	  -2.981739E+06	  -7.036666E+05	  -2.042584E+07	   5.837890E+07	  -2.638818E+07	   0.000000E+00	   0.000000E+00	   1.398874E+08	   2.905665E+06	  -5.735458E+07	   0.000000E+00	  -1.786510E+06	  -3.613341E+05	  -2.142537E+05	  -7.708766E+06	   5.768562E+07	  -6.289838E+07
    0.3125	   1.205518E+00	  -5.193806E+06	  -3.340597E+06	   1.389564E+08	  -2.457711E+07	   5.755934E+07	  -9.119577E+07	   5.008911E+00	   9.438333E-04	   1.050371E-03	  -5.309953E-06	   3.285231E-02	   5.273392E-02	   5.768856E-02	   9.086995E-03	   6.122795E-03	   5.183415E-05	  -1.910944E-03	   1.672761E-01	   1.990614E-01	   5.123134E-02	   1.416541E-02	   4.888667E-04	  -5.526210E-03	  -1.345908E-02	  -3.398087E+06	  -2.963349E+06	  -7.222248E+05	  -1.969579E+07	   5.786680E+07	  -2.597129E+07	   0.000000E+00	   0.000000E+00	   1.398871E+08	   3.025518E+06	  -5.735845E+07	   0.000000E+00	  -1.795719E+06	  -3.772480E+05	  -2.084660E+05	  -7.906838E+06	   5.705099E+07	  -6.522448E+07
    0.3250	   1.215222E+00	  -5.183663E+06	  -3.337815E+06	   1.389434E+08	  -2.391946E+07	   5.640564E+07	  -9.303090E+07	   5.009728E+00	   1.080192E-03	   1.133246E-03	  -6.008474E-06	   3.282591E-02	   5.481912E-02	   6.028677E-02	   9.834957E-03	   6.282942E-03	   5.651580E-05	  -1.975114E-03	   1.670881E-01	   2.016509E-01	   5.364527E-02	   1.377043E-02	   4.869883E-04	  -5.404769E-03	  -1.398555E-02	  -3.378622E+06	  -2.944670E+06	  -7.407123E+05	  -1.896357E+07	   5.735024E+07	  -2.555116E+07	   0.000000E+00	   0.000000E+00	   1.398868E+08	   3.145401E+06	  -5.736207E+07	   0.000000E+00	  -1.805041E+06	  -3.931458E+05	  -2.026789E+05	  -8.101290E+06	   5.641746E+07	  -6.747974E+07
    0.3375	   1.224805E+00	  -5.173318E+06	  -3.334731E+06	   1.389305E+08	  -2.325624E+07	   5.524898E+07	  -9.478909E+07	   5.010545E+00	   1.216550E-03	   1.216121E-03	  -6.706995E-06	   3.279950E-02	   5.690432E-02	   6.288499E-02	   1.058292E-02	   6.443088E-03	   6.146528E-05	  -2.039273E-03	   1.669002E-01	   2.042405E-01	   5.605920E-02	   1.337545E-02	   4.845813E-04	  -5.283362E-03	  -1.451201E-02	  -3.358837E+06	  -2.925699E+06	  -7.591236E+05	  -1.822940E+07	   5.682938E+07	  -2.512786E+07	   0.000000E+00	   0.000000E+00	   1.398865E+08	   3.265311E+06	  -5.736544E+07	   0.000000E+00	  -1.814481E+06	  -4.090319E+05	  -1.968922E+05	  -8.292148E+06	   5.578504E+07	  -6.966123E+07
    0.3500	   1.234265E+00	  -5.162773E+06	  -3.331356E+06	   1.389176E+08	  -2.258768E+07	   5.408956E+07	  -9.646846E+07	   5.011363E+00	   1.352908E-03	   1.298995E-03	  -7.405516E-06	   3.277310E-02	   5.898951E-02	   6.548321E-02	   1.133088E-02	   6.603234E-03	   6.668257E-05	  -2.103419E-03	   1.667122E-01	   2.068300E-01	   5.847313E-02	   1.298047E-02	   4.816460E-04	  -5.161989E-03	  -1.503847E-02	  -3.338738E+06	  -2.906450E+06	  -7.774538E+05	  -1.749351E+07	   5.630437E+07	  -2.470143E+07	   0.000000E+00	   0.000000E+00	   1.398862E+08	   3.385250E+06	  -5.736855E+07	   0.000000E+00	  -1.824036E+06	  -4.249064E+05	  -1.911060E+05	  -8.479414E+06	   5.515374E+07	  -7.176703E+07
    0.3625	   1.243600E+00	  -5.152034E+06	  -3.327695E+06	   1.389048E+08	  -2.191401E+07	   5.292750E+07	  -9.806726E+07	   5.012180E+00	   1.489267E-03	   1.381870E-03	  -8.104037E-06	   3.274670E-02	   6.107472E-02	   6.808142E-02	   1.207884E-02	   6.763381E-03	   7.216763E-05	  -2.167552E-03	   1.665243E-01	   2.094195E-01	   6.088706E-02	   1.258549E-02	   4.781825E-04	  -5.040652E-03	  -1.556494E-02	  -3.318330E+06	  -2.886926E+06	  -7.956972E+05	  -1.675613E+07	   5.577535E+07	  -2.427198E+07	   0.000000E+00	   0.000000E+00	   1.398859E+08	   3.505215E+06	  -5.737142E+07	   0.000000E+00	  -1.833705E+06	  -4.407689E+05	  -1.853202E+05	  -8.663091E+06	   5.452356E+07	  -7.379527E+07
    0.3750	   1.252806E+00	  -5.141106E+06	  -3.323751E+06	   1.388922E+08	  -2.123545E+07	   5.176300E+07	  -9.958375E+07	   5.012997E+00	   1.625625E-03	   1.464745E-03	  -8.802558E-06	   3.272030E-02	   6.315991E-02	   7.067963E-02	   1.282681E-02	   6.923527E-03	   7.792042E-05	  -2.231671E-03	   1.663363E-01	   2.120091E-01	   6.330099E-02	   1.219051E-02	   4.741909E-04	  -4.919352E-03	  -1.609141E-02	  -3.297619E+06	  -2.867132E+06	  -8.138484E+05	  -1.601748E+07	   5.524250E+07	  -2.383956E+07	   0.000000E+00	   0.000000E+00	   1.398855E+08	   3.625207E+06	  -5.737403E+07	   0.000000E+00	  -1.843487E+06	  -4.566196E+05	  -1.795348E+05	  -8.843178E+06	   5.389452E+07	  -7.574419E+07
    0.3875	   1.261883E+00	  -5.129992E+06	  -3.319534E+06	   1.388796E+08	  -2.055225E+07	   5.059620E+07	  -1.010163E+08	   5.013814E+00	   1.761984E-03	   1.547620E-03	  -9.501079E-06	   3.269390E-02	   6.524511E-02	   7.327785E-02	   1.357477E-02	   7.083673E-03	   8.394093E-05	  -2.295775E-03	   1.661484E-01	   2.145986E-01	   6.571492E-02	   1.179553E-02	   4.696714E-04	  -4.798092E-03	  -1.661788E-02	  -3.276611E+06	  -2.847076E+06	  -8.319026E+05	  -1.527779E+07	   5.470596E+07	  -2.340421E+07	   0.000000E+00	   0.000000E+00	   1.398852E+08	   3.745225E+06	  -5.737639E+07	   0.000000E+00	  -1.853381E+06	  -4.724581E+05	  -1.737499E+05	  -9.019679E+06	   5.326662E+07	  -7.761207E+07
    0.4000	   1.270826E+00	  -5.118694E+06	  -3.315048E+06	   1.388671E+08	  -1.986462E+07	   4.942722E+07	  -1.023634E+08	   5.014631E+00	   1.898342E-03	   1.630495E-03	  -1.019960E-05	   3.266750E-02	   6.733031E-02	   7.587607E-02	   1.432273E-02	   7.243820E-03	   9.022910E-05	  -2.359863E-03	   1.659604E-01	   2.171881E-01	   6.812885E-02	   1.140055E-02	   4.646241E-04	  -4.676874E-03	  -1.714435E-02	  -3.255309E+06	  -2.826763E+06	  -8.498543E+05	  -1.453729E+07	   5.416586E+07	  -2.296604E+07	   0.000000E+00	   0.000000E+00	   1.398849E+08	   3.865269E+06	  -5.737850E+07	   0.000000E+00	  -1.863384E+06	  -4.882845E+05	  -1.679654E+05	  -9.192596E+06	   5.263987E+07	  -7.939733E+07
    0.4125	   1.279641E+00	  -5.099394E+06	  -3.302558E+06	   1.388510E+08	  -1.963208E+07	   4.841800E+07	  -1.036326E+08	   5.015718E+00	   2.116848E-03	   1.727849E-03	  -1.108638E-05	   3.263518E-02	   6.939406E-02	   7.862809E-02	   1.517064E-02	   7.377589E-03	   9.971060E-05	  -2.414694E-03	   1.657199E-01	   2.179998E-01	   6.814697E-02	   1.125467E-02	   5.509391E-04	  -4.599501E-03	  -1.766888E-02	  -3.233702E+06	  -2.806182E+06	  -8.677122E+05	  -1.379556E+07	   5.362187E+07	  -2.252473E+07	   0.000000E+00	   0.000000E+00	   1.398845E+08	   3.984192E+06	  -5.738270E+07	   0.000000E+00	  -1.865691E+06	  -4.963763E+05	  -1.658429E+05	  -9.820713E+06	   5.217884E+07	  -8.110784E+07
    0.4250	   1.288330E+00	  -5.079855E+06	  -3.289798E+06	   1.388350E+08	  -1.939574E+07	   4.740333E+07	  -1.048120E+08	   5.016804E+00	   2.335354E-03	   1.825202E-03	  -1.197316E-05	   3.260285E-02	   7.145782E-02	   8.138011E-02	   1.601856E-02	   7.511357E-03	   1.094188E-04	  -2.469494E-03	   1.654793E-01	   2.188116E-01	   6.816510E-02	   1.110880E-02	   6.369100E-04	  -4.521794E-03	  -1.819342E-02	  -3.211780E+06	  -2.785325E+06	  -8.854832E+05	  -1.305230E+07	   5.307375E+07	  -2.208006E+07	   0.000000E+00	   0.000000E+00	   1.398842E+08	   4.103149E+06	  -5.738666E+07	   0.000000E+00	  -1.868075E+06	  -5.044738E+05	  -1.637207E+05	  -1.044659E+07	   5.171624E+07	  -8.273190E+07
    0.4375	   1.296892E+00	  -5.060088E+06	  -3.276774E+06	   1.388190E+08	  -1.915584E+07	   4.638337E+07	  -1.058994E+08	   5.017890E+00	   2.553859E-03	   1.922556E-03	  -1.285994E-05	   3.257053E-02	   7.352157E-02	   8.413213E-02	   1.686648E-02	   7.645126E-03	   1.193536E-04	  -2.524265E-03	   1.652388E-01	   2.196233E-01	   6.818323E-02	   1.096292E-02	   7.225360E-04	  -4.443754E-03	  -1.871794E-02	  -3.189552E+06	  -2.764195E+06	  -9.031619E+05	  -1.230774E+07	   5.252166E+07	  -2.163212E+07	   0.000000E+00	   0.000000E+00	   1.398838E+08	   4.222140E+06	  -5.739037E+07	   0.000000E+00	  -1.870536E+06	  -5.125793E+05	  -1.615989E+05	  -1.107024E+07	   5.125208E+07	  -8.426724E+07
    0.4500	   1.305325E+00	  -5.040091E+06	  -3.263494E+06	   1.388032E+08	  -1.891261E+07	   4.535826E+07	  -1.068936E+08	   5.018977E+00	   2.772365E-03	   2.019910E-03	  -1.374673E-05	   3.253821E-02	   7.558532E-02	   8.688415E-02	   1.771439E-02	   7.778895E-03	   1.295149E-04	  -2.579005E-03	   1.649982E-01	   2.204351E-01	   6.820136E-02	   1.081705E-02	   8.078159E-04	  -4.365384E-03	  -1.924247E-02	  -3.167018E+06	  -2.742802E+06	  -9.207435E+05	  -1.156211E+07	   5.196573E+07	  -2.118096E+07	   0.000000E+00	   0.000000E+00	   1.398834E+08	   4.341162E+06	  -5.739383E+07	   0.000000E+00	  -1.873073E+06	  -5.206925E+05	  -1.594774E+05	  -1.169166E+07	   5.078635E+07	  -8.571261E+07
    0.4625	   1.313626E+00	  -5.019872E+06	  -3.249964E+06	   1.387875E+08	  -1.866625E+07	   4.432816E+07	  -1.077935E+08	   5.020063E+00	   2.990871E-03	   2.117264E-03	  -1.463351E-05	   3.250589E-02	   7.764907E-02	   8.963616E-02	   1.856231E-02	   7.912663E-03	   1.399026E-04	  -2.633714E-03	   1.647577E-01	   2.212468E-01	   6.821948E-02	   1.067118E-02	   8.927488E-04	  -4.286682E-03	  -1.976698E-02	  -3.144189E+06	  -2.721151E+06	  -9.382222E+05	  -1.081564E+07	   5.140614E+07	  -2.072667E+07	   0.000000E+00	   0.000000E+00	   1.398830E+08	   4.460218E+06	  -5.739704E+07	   0.000000E+00	  -1.875683E+06	  -5.288130E+05	  -1.573562E+05	  -1.231083E+07	   5.031906E+07	  -8.706683E+07
    0.4750	   1.321793E+00	  -4.999437E+06	  -3.236191E+06	   1.387718E+08	  -1.841700E+07	   4.329327E+07	  -1.085981E+08	   5.021150E+00	   3.209376E-03	   2.214618E-03	  -1.552029E-05	   3.247356E-02	   7.971282E-02	   9.238818E-02	   1.941022E-02	   8.046431E-03	   1.505167E-04	  -2.688391E-03	   1.645171E-01	   2.220585E-01	   6.823761E-02	   1.052530E-02	   9.773338E-04	  -4.207652E-03	  -2.029150E-02	  -3.121070E+06	  -2.699250E+06	  -9.555942E+05	  -1.006854E+07	   5.084307E+07	  -2.026933E+07	   0.000000E+00	   0.000000E+00	   1.398827E+08	   4.579305E+06	  -5.740001E+07	   0.000000E+00	  -1.878366E+06	  -5.369405E+05	  -1.552353E+05	  -1.292776E+07	   4.985020E+07	  -8.832882E+07
    0.4875	   1.329824E+00	  -4.978786E+06	  -3.222180E+06	   1.387563E+08	  -1.816508E+07	   4.225369E+07	  -1.093066E+08	   5.022236E+00	   3.427882E-03	   2.311971E-03	  -1.640707E-05	   3.244124E-02	   8.177657E-02	   9.514020E-02	   2.025813E-02	   8.180200E-03	   1.613570E-04	  -2.743035E-03	   1.642766E-01	   2.228703E-01	   6.825574E-02	   1.037943E-02	   1.061570E-03	  -4.128294E-03	  -2.081600E-02	  -3.097667E+06	  -2.677105E+06	  -9.728534E+05	  -9.321070E+06	   5.027663E+07	  -1.980900E+07	   0.000000E+00	   0.000000E+00	   1.398823E+08	   4.698423E+06	  -5.740272E+07	   0.000000E+00	  -1.881120E+06	  -5.450746E+05	  -1.531147E+05	  -1.354244E+07	   4.937979E+07	  -8.949757E+07
    0.5000	   1.337717E+00	  -4.957928E+06	  -3.207939E+06	   1.387409E+08	  -1.791071E+07	   4.120961E+07	  -1.099179E+08	   5.023323E+00	   3.646388E-03	   2.409325E-03	  -1.729385E-05	   3.240892E-02	   8.384033E-02	   9.789222E-02	   2.110605E-02	   8.313969E-03	   1.724235E-04	  -2.797645E-03	   1.640360E-01	   2.236820E-01	   6.827386E-02	   1.023355E-02	   1.145456E-03	  -4.048608E-03	  -2.134051E-02	  -3.073986E+06	  -2.654724E+06	  -9.899954E+05	  -8.573433E+06	   4.970699E+07	  -1.934577E+07	   0.000000E+00	   0.000000E+00	   1.398819E+08	   4.817572E+06	  -5.740520E+07	   0.000000E+00	  -1.883942E+06	  -5.532151E+05	  -1.509944E+05	  -1.415485E+07	   4.890782E+07	  -9.057216E+07