
FAST Summary File

Predictions were generated on 29-Aug-2018 at 15:35:40 using OpenFAST, compiled as a 64-bit application using double precision at commit v1.0.0-201-g5e620c32-dirty
  compiled with
    NWTC Subroutine Library
    ElastoDyn
    BeamDyn
    InflowWind
    AeroDyn14 [not called]
    AeroDyn
    ServoDyn
    HydroDyn [not called]
    SubDyn [not called]
    ExtPtfm_MCKF [not called]
    MAP [not called]
    FEAMooring [not called]
    MoorDyn [not called]
    OrcaFlexInterface [not called]
    IceFloe [not called]
    IceDyn [not called]


Modeling a land-based turbine
Description from the FAST input file: 
  FAST Certification Test #26: NREL 5.0 MW Baseline Wind Turbine (Onshore)

Interpolation order for input/output time histories: 2 (quadratic)
Number of correction iterations:  0
Number of rows in Jacobian matrix used for coupling ElastoDyn, SubDyn, HydroDyn, OrcaFlex, ExtPtfm_MCKF, and/or BeamDyn:     24


   Requested Time Steps  
  -------------------------------------------------
  Component          Time Step (s)    Subcycles (-)
  -----------------  ---------------  -------------
  FAST (glue code)    1.000E-03
  InflowWind          1.000E-03              1
  ElastoDyn           1.000E-03              1
  BeamDyn             1.000E-03              1
  AeroDyn             1.000E-03              1
  ServoDyn            1.000E-03              1
  FAST output files   1.000E-03              1


   Requested Channels in FAST Output File(s)  
  --------------------------------------------
  Number  Name        Units       Generated by
  ------  ----------  ----------  ------------
       1  Time        (s)         OpenFAST
       2  Wind1VelX   (m/s)       InflowWind
       3  Wind1VelY   (m/s)       InflowWind
       4  Wind1VelZ   (m/s)       InflowWind
       5  BldPitch1   (deg)       ElastoDyn
       6  Azimuth     (deg)       ElastoDyn
       7  RotSpeed    (rpm)       ElastoDyn
       8  GenSpeed    (rpm)       ElastoDyn
       9  TTDspFA     (m)         ElastoDyn
      10  TTDspSS     (m)         ElastoDyn
      11  TTDspTwst   (deg)       ElastoDyn
      12  RotTorq     (kN-m)      ElastoDyn
      13  LSSGagMya   (kN-m)      ElastoDyn
      14  LSSGagMza   (kN-m)      ElastoDyn
      15  YawBrFxp    (kN)        ElastoDyn
      16  YawBrFyp    (kN)        ElastoDyn
      17  YawBrFzp    (kN)        ElastoDyn
      18  YawBrMxp    (kN-m)      ElastoDyn
      19  YawBrMyp    (kN-m)      ElastoDyn
      20  YawBrMzp    (kN-m)      ElastoDyn
      21  TwrBsFxt    (kN)        ElastoDyn
      22  TwrBsFyt    (kN)        ElastoDyn
      23  TwrBsFzt    (kN)        ElastoDyn
      24  TwrBsMxt    (kN-m)      ElastoDyn
      25  TwrBsMyt    (kN-m)      ElastoDyn
      26  TwrBsMzt    (kN-m)      ElastoDyn
      27  B1RootFxr   (N)         BeamDyn
      28  B1RootFyr   (N)         BeamDyn
      29  B1RootFzr   (N)         BeamDyn
      30  B1RootMxr   (N-m)       BeamDyn
      31  B1RootMyr   (N-m)       BeamDyn
      32  B1RootMzr   (N-m)       BeamDyn
      33  B1TipTDxr   (m)         BeamDyn
      34  B1TipTDyr   (m)         BeamDyn
      35  B1TipTDzr   (m)         BeamDyn
      36  B1TipRDxr   (-)         BeamDyn
      37  B1TipRDyr   (-)         BeamDyn
      38  B1TipRDzr   (-)         BeamDyn
      39  B2RootFxr   (N)         BeamDyn
      40  B2RootFyr   (N)         BeamDyn
      41  B2RootFzr   (N)         BeamDyn
      42  B2RootMxr   (N-m)       BeamDyn
      43  B2RootMyr   (N-m)       BeamDyn
      44  B2RootMzr   (N-m)       BeamDyn
      45  B2TipTDxr   (m)         BeamDyn
      46  B2TipTDyr   (m)         BeamDyn
      47  B2TipTDzr   (m)         BeamDyn
      48  B2TipRDxr   (-)         BeamDyn
      49  B2TipRDyr   (-)         BeamDyn
      50  B2TipRDzr   (-)         BeamDyn
      51  B3RootFxr   (N)         BeamDyn
      52  B3RootFyr   (N)         BeamDyn
      53  B3RootFzr   (N)         BeamDyn
      54  B3RootMxr   (N-m)       BeamDyn
      55  B3RootMyr   (N-m)       BeamDyn
      56  B3RootMzr   (N-m)       BeamDyn
      57  B3TipTDxr   (m)         BeamDyn
      58  B3TipTDyr   (m)         BeamDyn
      59  B3TipTDzr   (m)         BeamDyn
      60  B3TipRDxr   (-)         BeamDyn
      61  B3TipRDyr   (-)         BeamDyn
      62  B3TipRDzr   (-)         BeamDyn
      63  GenPwr      (kW)        ServoDyn
      64  GenTq       (kN-m)      ServoDyn
