
FAST Summary File

Predictions were generated on 15-Jun-2022 at 17:10:15 using OpenFAST, compiled as a 64-bit application using double precision at commit v3.1.0-165-g9f41022c-dirty
  compiled with
    NWTC Subroutine Library
    ElastoDyn (unknown version, unknown date) [not called]
    BeamDyn (unknown version, unknown date) [not called]
    SED (v1.00.00, 15-Feb-2022)
    InflowWind
    AeroDyn14 (unknown version, unknown date) [not called]
    AeroDyn (unknown version, unknown date) [not called]
    AeroDisk
    ServoDyn
    HydroDyn (unknown version, unknown date) [not called]
    SubDyn (unknown version, unknown date) [not called]
    ExtPtfm_MCKF (unknown version, unknown date) [not called]
    MAP (unknown version, unknown date) [not called]
    FEAMooring (unknown version, unknown date) [not called]
    MoorDyn (unknown version, unknown date) [not called]
    OrcaFlexInterface (unknown version, unknown date) [not called]
    IceFloe (unknown version, unknown date) [not called]
    IceDyn (unknown version, unknown date) [not called]


Modeling a land-based turbine
Description from the FAST input file: 
  Based on FAST Certification Test #18: NREL 5.0 MW Baseline Wind Turbine (Onshore) with AeroDisk

Interpolation order for input/output time histories: 2 (quadratic)
Number of correction iterations:  0


   Requested Time Steps  
  -------------------------------------------------
  Component          Time Step (s)    Subcycles (-)
  -----------------  ---------------  -------------
  FAST (glue code)    6.250E-03
  InflowWind          6.250E-03              1
  ServoDyn            6.250E-03              1
  AeroDisk            6.250E-03              1
  SED                 6.250E-03              1
  FAST output files   6.250E-03              1


   Requested Channels in FAST Output File(s)  
  --------------------------------------------
  Number  Name                  Units                 Generated by
  ------  --------------------  --------------------  ------------
       1  Time                  (s)                   OpenFAST
       2  Wind1VelX             (m/s)                 InflowWind
       3  Wind1VelY             (m/s)                 InflowWind
       4  Wind1VelZ             (m/s)                 InflowWind
       5  BlPitch1              (deg)                 ServoDyn
       6  BlPitch2              (deg)                 ServoDyn
       7  BlPitch3              (deg)                 AeroDisk
       8  Azimuth               (deg)                 AeroDisk
       9  RotSpeed              (rpm)                 AeroDisk
      10  RotAcc                (deg/s^2)             AeroDisk
      11  GenSpeed              (rpm)                 AeroDisk
      12  GenAcc                (deg/s^2)             AeroDisk
      13  Yaw                   (deg)                 AeroDisk
      14  YawRate               (deg/s)               AeroDisk
      15  RotPwr                (kW)                  AeroDisk
      16  RotThrust             (kN)                  AeroDisk
      17  RotTorq               (kN-m)                AeroDisk
      18  ADSpeed               (rpm)                 AeroDisk
      19  ADTSR                 (-)                   AeroDisk
      20  ADPitch               (deg)                 AeroDisk
      21  ADVWindx              (m/s)                 AeroDisk
      22  ADVWindy              (m/s)                 AeroDisk
      23  ADVWindz              (m/s)                 AeroDisk
      24  ADSTVx                (m/s)                 AeroDisk
      25  ADSTVy                (m/s)                 AeroDisk
      26  ADSTVz                (m/s)                 AeroDisk
      27  ADVRel                (m/s)                 AeroDisk
      28  ADSkew                (deg)                 SED
      29  ADCp                  (-)                   SED
      30  ADCt                  (-)                   SED
      31  ADCq                  (-)                   SED
      32  ADFx                  (N)                   SED
      33  ADFy                  (N)                   SED
      34  ADFz                  (N)                   SED
      35  ADMx                  (N-m)                 SED
      36  ADMy                  (N-m)                 SED
      37  ADMz                  (N-m)                 SED
      38  ADPower               (W)                   SED
      39  GenPwr                (kW)                  SED
      40  GenTq                 (kN-m)                SED
