
FAST Summary File

Predictions were generated on 23-May-2018 at 14:24:01 using OpenFAST, compiled as a 64-bit application using double precision at commit v1.0.0-106-g2b0e040a-dirty
  compiled with
    NWTC Subroutine Library
    ElastoDyn
    BeamDyn [not called]
    InflowWind
    AeroDyn14
    AeroDyn [not called]
    ServoDyn
    HydroDyn [not called]
    SubDyn [not called]
    ExtPtfm_MCKF [not called]
    MAP [not called]
    FEAMooring [not called]
    MoorDyn [not called]
    OrcaFlexInterface [not called]
    IceFloe [not called]
    IceDyn [not called]


Modeling a land-based turbine
Description from the FAST input file: 
  FAST Certification Test #01: AWT-27CR2 with many DOFs with fixed yaw error and steady wind

Interpolation order for input/output time histories: 1 (linear)
Number of correction iterations:  0


   Requested Time Steps  
  -------------------------------------------------
  Component          Time Step (s)    Subcycles (-)
  -----------------  ---------------  -------------
  FAST (glue code)    4.000E-03
  InflowWind          4.000E-03              1
  ElastoDyn           4.000E-03              1
  AeroDyn14           4.000E-03              1
  ServoDyn            4.000E-03              1
  FAST output files   2.000E-02              5^-1


   Requested Channels in FAST Output File(s)  
  --------------------------------------------
  Number  Name        Units       Generated by
  ------  ----------  ----------  ------------
       1  Time        (s)         OpenFAST
       2  Wind1VelX   (m/s)       InflowWind
       3  Wind1VelY   (m/s)       InflowWind
       4  Wind1VelZ   (m/s)       InflowWind
       5  LSSGagVxa   (rpm)       ElastoDyn
       6  LSSGagPxa   (deg)       ElastoDyn
       7  TeetDefl    (deg)       ElastoDyn
       8  TipDxb2     (m)         ElastoDyn
       9  TipDyb2     (m)         ElastoDyn
      10  TipALxb2    (m/s^2)     ElastoDyn
      11  TipALyb2    (m/s^2)     ElastoDyn
      12  Spn2ALxb1   (m/s^2)     ElastoDyn
      13  Spn2ALyb1   (m/s^2)     ElastoDyn
      14  YawBrRDxt   (deg)       ElastoDyn
      15  YawBrRDyt   (deg)       ElastoDyn
      16  YawBrRVxp   (deg/s)     ElastoDyn
      17  YawBrRVyp   (deg/s)     ElastoDyn
      18  YawBrRAxp   (deg/s^2)   ElastoDyn
      19  YawBrRAyp   (deg/s^2)   ElastoDyn
      20  RootMyc1    (kN-m)      ElastoDyn
      21  RootMxc1    (kN-m)      ElastoDyn
      22  RootFxc2    (kN)        ElastoDyn
      23  RootFyc2    (kN)        ElastoDyn
      24  Spn3MLxb1   (kN-m)      ElastoDyn
      25  Spn3MLyb1   (kN-m)      ElastoDyn
      26  RotTorq     (kN-m)      ElastoDyn
      27  YawBrMzn    (kN-m)      ElastoDyn
      28  TwrBsMzt    (kN-m)      ElastoDyn
