
FAST Summary File

Predictions were generated on 14-Jan-2021 at 17:38:19 using OpenFAST, compiled as a 64-bit application using double precision at commit v2.5.0-10-gb4fd3acc
  compiled with
    NWTC Subroutine Library
    ElastoDyn
    BeamDyn (unknown version, unknown date) [not called]
    InflowWind
    AeroDyn14
    AeroDyn (unknown version, unknown date) [not called]
    ServoDyn
    HydroDyn (unknown version, unknown date) [not called]
    SubDyn (unknown version, unknown date) [not called]
    ExtPtfm_MCKF (unknown version, unknown date) [not called]
    MAP (unknown version, unknown date) [not called]
    FEAMooring (unknown version, unknown date) [not called]
    MoorDyn (unknown version, unknown date) [not called]
    OrcaFlexInterface (unknown version, unknown date) [not called]
    IceFloe (unknown version, unknown date) [not called]
    IceDyn (unknown version, unknown date) [not called]


Modeling a land-based turbine
Description from the FAST input file: 
  FAST Certification Test #06: AOC 15/50 with many DOFs with gen start, loss of grid, and tip-brake shutdown. Many parameters are pure fiction.

Interpolation order for input/output time histories: 1 (linear)
Number of correction iterations:  0


   Requested Time Steps  
  -------------------------------------------------
  Component          Time Step (s)    Subcycles (-)
  -----------------  ---------------  -------------
  FAST (glue code)    5.000E-03
  InflowWind          5.000E-03              1
  ElastoDyn           5.000E-03              1
  AeroDyn14           5.000E-03              1
  ServoDyn            5.000E-03              1
  FAST output files   5.000E-02             10^-1


   Requested Channels in FAST Output File(s)  
  --------------------------------------------
  Number  Name                  Units                 Generated by
  ------  --------------------  --------------------  ------------
       1  Time                  (s)                   OpenFAST
       2  Wind1VelX             (m/s)                 InflowWind
       3  Wind1VelY             (m/s)                 InflowWind
       4  Wind1VelZ             (m/s)                 InflowWind
       5  TipDxb3               (m)                   ElastoDyn
       6  TipDyb3               (m)                   ElastoDyn
       7  TipRDxb3              (deg)                 ElastoDyn
       8  TipRDyb3              (deg)                 ElastoDyn
       9  Spn5ALxb1             (m/s^2)               ElastoDyn
      10  Spn5ALyb1             (m/s^2)               ElastoDyn
      11  RotSpeed              (rpm)                 ElastoDyn
      12  LSSGagV               (rpm)                 ElastoDyn
      13  HSShftV               (rpm)                 ElastoDyn
      14  RootFxb3              (kN)                  ElastoDyn
      15  RootFyb3              (kN)                  ElastoDyn
      16  RootMEdg3             (kN-m)                ElastoDyn
      17  RootMFlp3             (kN-m)                ElastoDyn
      18  Spn4MLxb1             (kN-m)                ElastoDyn
      19  Spn4MLyb1             (kN-m)                ElastoDyn
      20  LSSGagFxs             (kN)                  ElastoDyn
      21  LSSGagFys             (kN)                  ElastoDyn
      22  LSSGagFzs             (kN)                  ElastoDyn
      23  LSShftTq              (kN-m)                ElastoDyn
      24  HSShftTq              (kN-m)                ElastoDyn
      25  LSShftPwr             (kW)                  ElastoDyn
      26  HSShftPwr             (kW)                  ElastoDyn
      27  GenTq                 (kN-m)                ServoDyn
      28  GenPwr                (kW)                  ServoDyn
