
FAST Summary File

Predictions were generated on 06-Nov-2020 at 13:57:00 using OpenFAST, compiled as a 64-bit application using double precision at commit v2.4.0-50-g416ff436-dirty
  compiled with
    NWTC Subroutine Library
    ElastoDyn
    BeamDyn (unknown version, unknown date) [not called]
    InflowWind
    AeroDyn14 (unknown version, unknown date) [not called]
    AeroDyn
    ServoDyn
    HydroDyn (unknown version, unknown date) [not called]
    SubDyn (unknown version, unknown date) [not called]
    ExtPtfm_MCKF (unknown version, unknown date) [not called]
    MAP (unknown version, unknown date) [not called]
    FEAMooring (unknown version, unknown date) [not called]
    MoorDyn (unknown version, unknown date) [not called]
    OrcaFlexInterface (unknown version, unknown date) [not called]
    IceFloe (unknown version, unknown date) [not called]
    IceDyn (unknown version, unknown date) [not called]


Modeling a land-based turbine
Description from the FAST input file: 
  FAST Certification Test #13: WindPACT 1.5 MW Baseline with many DOFs with VS and VP and FF turbulence.

Interpolation order for input/output time histories: 2 (quadratic)
Number of correction iterations:  0


   Requested Time Steps  
  -------------------------------------------------
  Component          Time Step (s)    Subcycles (-)
  -----------------  ---------------  -------------
  FAST (glue code)    5.000E-03
  InflowWind          5.000E-03              1
  ElastoDyn           5.000E-03              1
  AeroDyn             5.000E-03              1
  ServoDyn            5.000E-03              1
  FAST output files   5.000E-02             10^-1


   Requested Channels in FAST Output File(s)  
  --------------------------------------------
  Number  Name                  Units                 Generated by
  ------  --------------------  --------------------  ------------
       1  Time                  (s)                   OpenFAST
       2  Wind1VelX             (m/s)                 InflowWind
       3  Wind1VelY             (m/s)                 InflowWind
       4  Wind1VelZ             (m/s)                 InflowWind
       5  BldPitch2             (deg)                 ElastoDyn
       6  IPDefl1               (m)                   ElastoDyn
       7  IPDefl2               (m)                   ElastoDyn
       8  TwstDefl1             (deg)                 ElastoDyn
       9  TwstDefl2             (deg)                 ElastoDyn
      10  TwstDefl3             (deg)                 ElastoDyn
      11  RootMxb2              (kN-m)                ElastoDyn
      12  RootMyb2              (kN-m)                ElastoDyn
      13  RootMzb2              (kN-m)                ElastoDyn
      14  LSShftFys             (kN)                  ElastoDyn
      15  LSShftFzs             (kN)                  ElastoDyn
      16  LSSTipMys             (kN-m)                ElastoDyn
      17  LSSTipMzs             (kN-m)                ElastoDyn
      18  YawBrTDxp             (m)                   ElastoDyn
      19  YawBrTDyp             (m)                   ElastoDyn
      20  YawBrMxn              (kN-m)                ElastoDyn
      21  YawBrMyn              (kN-m)                ElastoDyn
      22  YawBrMzn              (kN-m)                ElastoDyn
      23  RtSkew                (deg)                 AeroDyn
