
FAST Summary File

Predictions were generated on 02-May-2024 at 21:57:26 using OpenFAST, compiled on May  2 2024 at 21:38:56 as a 64-bit application using double precision at commit -128-NOTFOUND
  run with
    NWTC Subroutine Library
    InflowWind
    ElastoDyn
    AeroDyn
    ServoDyn
Description from the FAST input file: 
  FAST Certification Test #07: AOC 15/50 with many DOFs with free yaw and FF turbulence. Many parameters are pure fiction.

Interpolation order for input/output time histories: 2 (quadratic)
Number of correction iterations:  0


   Requested Time Steps  
  -------------------------------------------------
  Component          Time Step (s)    Subcycles (-)
  -----------------  ---------------  -------------
  FAST (glue code)    5.000E-03
  InflowWind          5.000E-03              1
  ElastoDyn           5.000E-03              1
  AeroDyn             5.000E-03              1
  ServoDyn            5.000E-03              1
  FAST output files   5.000E-02             10^-1


   Requested Channels in FAST Output File(s)  
  --------------------------------------------
  Number  Name                  Units                 Generated by
  ------  --------------------  --------------------  ------------
       1  Time                  (s)                   OpenFAST
       2  Wind1VelX             (m/s)                 InflowWind
       3  Wind1VelY             (m/s)                 InflowWind
       4  Wind1VelZ             (m/s)                 InflowWind
       5  WindMeas1             (m/s)                 InflowWind
       6  WindMeas2             (m/s)                 InflowWind
       7  TipDxc3               (m)                   ElastoDyn
       8  TipDyc3               (m)                   ElastoDyn
       9  TipDzb3               (m)                   ElastoDyn
      10  TipALzb3              (m/s^2)               ElastoDyn
      11  Spn3ALxb1             (m/s^2)               ElastoDyn
      12  Spn3ALyb1             (m/s^2)               ElastoDyn
      13  YawBrTAxp             (m/s^2)               ElastoDyn
      14  YawBrTAyp             (m/s^2)               ElastoDyn
      15  NacYawV               (deg/s)               ElastoDyn
      16  NacYawA               (deg/s^2)             ElastoDyn
      17  RootFxc3              (kN)                  ElastoDyn
      18  RootFyc3              (kN)                  ElastoDyn
      19  RootMIP3              (kN-m)                ElastoDyn
      20  RootMOoP3             (kN-m)                ElastoDyn
      21  Spn1MLxb1             (kN-m)                ElastoDyn
      22  Spn1MLyb1             (kN-m)                ElastoDyn
      23  LSSTipMya             (kN-m)                ElastoDyn
      24  LSSTipMza             (kN-m)                ElastoDyn
      25  LSSGagMys             (kN-m)                ElastoDyn
      26  LSSGagMzs             (kN-m)                ElastoDyn
      27  TwrBsMxt              (kN-m)                ElastoDyn
      28  TwrBsMyt              (kN-m)                ElastoDyn
      29  Spn1RDxb3             (deg)                 ElastoDyn
      30  Spn2RDyb3             (deg)                 ElastoDyn
      31  Spn3RDzb3             (deg)                 ElastoDyn
      32  RtTSR                 (-)                   AeroDyn
