
Linearized model: Predictions were generated on 27-Feb-2025 at 19:39:48 using OpenFAST, compiled on Feb 27 2025 at 18:00:14 as a 64-bit application using double precision at commit HEAD-HASH-NOTFOUND
 linked with  NWTC Subroutine Library; ElastoDyn; InflowWind; AeroDyn; ServoDyn

Description from the FAST input file: NREL 5.0 MW Baseline Wind Turbine (Onshore), Linearization with AeroDyn + ED

Simulation information:
   Simulation time:                    60.9000 s
   Rotor Speed:                         1.0002 rad/s
   Azimuth:                             0.0048 rad
   Wind Speed:                          8.0000 m/s
   Number of continuous states:       258
   Number of discrete states:           0
   Number of constraint states:         0
   Number of inputs:                   69
   Number of outputs:                   5
   Jacobians included in this file?    No

Order of continuous states:
   Row/Column Operating Point                                                   Rotating Frame? Derivative Order Description
   ---------- ---------------                                                   --------------- ---------------- -----------
          1    2.082086526060E-001                                                     F               2         ED 1st tower fore-aft bending mode DOF (internal DOF index = DOF_TFA1), m
          2    1.827590334953E-002                                                     F               2         ED 1st tower side-to-side bending mode DOF (internal DOF index = DOF_TSS1), m
          3   -7.225565513389E-005                                                     F               2         ED 2nd tower fore-aft bending mode DOF (internal DOF index = DOF_TFA2), m
          4    1.421129706608E-004                                                     F               2         ED 2nd tower side-to-side bending mode DOF (internal DOF index = DOF_TSS2), m
          5    4.715031980220E+000                                                     F               2         ED Variable speed generator DOF (internal DOF index = DOF_GeAz), rad
          6    2.180412699606E-003                                                     F               2         ED Drivetrain rotational-flexibility DOF (internal DOF index = DOF_DrTr), rad
          7    3.175809768486E+000                                                     T               2         ED 1st flapwise bending-mode DOF of blade 1 (internal DOF index = DOF_BF(1,1)), m
          8    3.351293340881E+000                                                     T               2         ED 1st flapwise bending-mode DOF of blade 2 (internal DOF index = DOF_BF(2,1)), m
          9    3.050118558860E+000                                                     T               2         ED 1st flapwise bending-mode DOF of blade 3 (internal DOF index = DOF_BF(3,1)), m
         10    8.412293106474E-002                                                     T               2         ED 1st edgewise bending-mode DOF of blade 1 (internal DOF index = DOF_BE(1,1)), m
         11   -3.115611213751E-001                                                     T               2         ED 1st edgewise bending-mode DOF of blade 2 (internal DOF index = DOF_BE(2,1)), m
         12    4.951829649322E-001                                                     T               2         ED 1st edgewise bending-mode DOF of blade 3 (internal DOF index = DOF_BE(3,1)), m
         13    5.591777554086E-002                                                     T               2         ED 2nd flapwise bending-mode DOF of blade 1 (internal DOF index = DOF_BF(1,2)), m
         14   -8.608560717557E-003                                                     T               2         ED 2nd flapwise bending-mode DOF of blade 2 (internal DOF index = DOF_BF(2,2)), m
         15    8.508242273039E-002                                                     T               2         ED 2nd flapwise bending-mode DOF of blade 3 (internal DOF index = DOF_BF(3,2)), m
         16    1.696430987050E-004                                                     F               2         ED First time derivative of 1st tower fore-aft bending mode DOF (internal DOF index = DOF_TFA1), m/s
         17    1.852844695377E-003                                                     F               2         ED First time derivative of 1st tower side-to-side bending mode DOF (internal DOF index = DOF_TSS1), m/s
         18   -2.999697281298E-005                                                     F               2         ED First time derivative of 2nd tower fore-aft bending mode DOF (internal DOF index = DOF_TFA2), m/s
         19   -3.943788908870E-005                                                     F               2         ED First time derivative of 2nd tower side-to-side bending mode DOF (internal DOF index = DOF_TSS2), m/s
         20    1.000281595903E+000                                                     F               2         ED First time derivative of Variable speed generator DOF (internal DOF index = DOF_GeAz), rad/s
         21   -8.561585491476E-005                                                     F               2         ED First time derivative of Drivetrain rotational-flexibility DOF (internal DOF index = DOF_DrTr), rad/s
         22    2.061872478669E-001                                                     T               2         ED First time derivative of 1st flapwise bending-mode DOF of blade 1 (internal DOF index = DOF_BF(1,1)), m/s
         23   -1.040080236599E-001                                                     T               2         ED First time derivative of 1st flapwise bending-mode DOF of blade 2 (internal DOF index = DOF_BF(2,1)), m/s
         24   -1.376559845356E-001                                                     T               2         ED First time derivative of 1st flapwise bending-mode DOF of blade 3 (internal DOF index = DOF_BF(3,1)), m/s
         25   -5.010023037649E-001                                                     T               2         ED First time derivative of 1st edgewise bending-mode DOF of blade 1 (internal DOF index = DOF_BE(1,1)), m/s
         26    2.760015499181E-001                                                     T               2         ED First time derivative of 1st edgewise bending-mode DOF of blade 2 (internal DOF index = DOF_BE(2,1)), m/s
         27    2.425542763432E-001                                                     T               2         ED First time derivative of 1st edgewise bending-mode DOF of blade 3 (internal DOF index = DOF_BE(3,1)), m/s
         28   -6.438482595175E-002                                                     T               2         ED First time derivative of 2nd flapwise bending-mode DOF of blade 1 (internal DOF index = DOF_BF(1,2)), m/s
         29    2.191935875183E-002                                                     T               2         ED First time derivative of 2nd flapwise bending-mode DOF of blade 2 (internal DOF index = DOF_BF(2,2)), m/s
         30    8.788351498512E-002                                                     T               2         ED First time derivative of 2nd flapwise bending-mode DOF of blade 3 (internal DOF index = DOF_BF(3,2)), m/s
         31   -7.782978171983E+000                                                     T               2         AD vind (axial) at blade 1, node 1, m/s
         32    0.000000000000E+000                                                     T               2         AD vind (tangential) at blade 1, node 1, m/s
         33    0.000000000000E+000                                                     T               2         AD vind (axial) at blade 1, node 2, m/s
         34    0.000000000000E+000                                                     T               2         AD vind (tangential) at blade 1, node 2, m/s
         35    0.000000000000E+000                                                     T               2         AD vind (axial) at blade 1, node 3, m/s
         36    0.000000000000E+000                                                     T               2         AD vind (tangential) at blade 1, node 3, m/s
         37    0.000000000000E+000                                                     T               2         AD vind (axial) at blade 1, node 4, m/s
         38    0.000000000000E+000                                                     T               2         AD vind (tangential) at blade 1, node 4, m/s
         39   -2.014998456866E+000                                                     T               2         AD vind (axial) at blade 1, node 5, m/s
         40    9.496886729198E-001                                                     T               2         AD vind (tangential) at blade 1, node 5, m/s
         41   -2.176664831558E+000                                                     T               2         AD vind (axial) at blade 1, node 6, m/s
         42    7.648827784370E-001                                                     T               2         AD vind (tangential) at blade 1, node 6, m/s
         43   -1.996919809263E+000                                                     T               2         AD vind (axial) at blade 1, node 7, m/s
         44    5.852327664569E-001                                                     T               2         AD vind (tangential) at blade 1, node 7, m/s
         45   -1.983116679312E+000                                                     T               2         AD vind (axial) at blade 1, node 8, m/s
         46    4.872438670253E-001                                                     T               2         AD vind (tangential) at blade 1, node 8, m/s
         47   -2.219380490490E+000                                                     T               2         AD vind (axial) at blade 1, node 9, m/s
         48    4.490867449829E-001                                                     T               2         AD vind (tangential) at blade 1, node 9, m/s
         49   -2.293690207449E+000                                                     T               2         AD vind (axial) at blade 1, node 10, m/s
         50    4.008469096475E-001                                                     T               2         AD vind (tangential) at blade 1, node 10, m/s
         51   -2.576795133397E+000                                                     T               2         AD vind (axial) at blade 1, node 11, m/s
         52    3.798279609373E-001                                                     T               2         AD vind (tangential) at blade 1, node 11, m/s
         53   -2.779352472364E+000                                                     T               2         AD vind (axial) at blade 1, node 12, m/s
         54    3.542173877700E-001                                                     T               2         AD vind (tangential) at blade 1, node 12, m/s
         55   -2.636265269666E+000                                                     T               2         AD vind (axial) at blade 1, node 13, m/s
         56    3.131706578564E-001                                                     T               2         AD vind (tangential) at blade 1, node 13, m/s
         57   -2.753044955229E+000                                                     T               2         AD vind (axial) at blade 1, node 14, m/s
         58    2.922882644659E-001                                                     T               2         AD vind (tangential) at blade 1, node 14, m/s
         59   -2.917295392862E+000                                                     T               2         AD vind (axial) at blade 1, node 15, m/s
         60    2.758971590993E-001                                                     T               2         AD vind (tangential) at blade 1, node 15, m/s
         61   -3.178817617065E+000                                                     T               2         AD vind (axial) at blade 1, node 16, m/s
         62    2.671015582964E-001                                                     T               2         AD vind (tangential) at blade 1, node 16, m/s
         63   -3.494109318323E+000                                                     T               2         AD vind (axial) at blade 1, node 17, m/s
         64    2.640889222408E-001                                                     T               2         AD vind (tangential) at blade 1, node 17, m/s
         65   -3.640406495255E+000                                                     T               2         AD vind (axial) at blade 1, node 18, m/s
         66    2.601346193144E-001                                                     T               2         AD vind (tangential) at blade 1, node 18, m/s
         67   -7.920999264886E+000                                                     T               2         AD vind (axial) at blade 1, node 19, m/s
         68    0.000000000000E+000                                                     T               2         AD vind (tangential) at blade 1, node 19, m/s
         69   -7.867310614372E+000                                                     T               2         AD vind (axial) at blade 2, node 1, m/s
         70    0.000000000000E+000                                                     T               2         AD vind (tangential) at blade 2, node 1, m/s
         71    0.000000000000E+000                                                     T               2         AD vind (axial) at blade 2, node 2, m/s
         72    0.000000000000E+000                                                     T               2         AD vind (tangential) at blade 2, node 2, m/s
         73    0.000000000000E+000                                                     T               2         AD vind (axial) at blade 2, node 3, m/s
         74    0.000000000000E+000                                                     T               2         AD vind (tangential) at blade 2, node 3, m/s
         75    0.000000000000E+000                                                     T               2         AD vind (axial) at blade 2, node 4, m/s
         76    0.000000000000E+000                                                     T               2         AD vind (tangential) at blade 2, node 4, m/s
         77   -2.024167741350E+000                                                     T               2         AD vind (axial) at blade 2, node 5, m/s
         78    9.548863355241E-001                                                     T               2         AD vind (tangential) at blade 2, node 5, m/s
         79   -2.183740105217E+000                                                     T               2         AD vind (axial) at blade 2, node 6, m/s
         80    7.677091573987E-001                                                     T               2         AD vind (tangential) at blade 2, node 6, m/s
         81   -2.001248147182E+000                                                     T               2         AD vind (axial) at blade 2, node 7, m/s
         82    5.866427646214E-001                                                     T               2         AD vind (tangential) at blade 2, node 7, m/s
         83   -1.985644908187E+000                                                     T               2         AD vind (axial) at blade 2, node 8, m/s
         84    4.879145384225E-001                                                     T               2         AD vind (tangential) at blade 2, node 8, m/s
         85   -2.220725894014E+000                                                     T               2         AD vind (axial) at blade 2, node 9, m/s
         86    4.493559562977E-001                                                     T               2         AD vind (tangential) at blade 2, node 9, m/s
         87   -2.293514792044E+000                                                     T               2         AD vind (axial) at blade 2, node 10, m/s
         88    4.007778852837E-001                                                     T               2         AD vind (tangential) at blade 2, node 10, m/s
         89   -2.574999357320E+000                                                     T               2         AD vind (axial) at blade 2, node 11, m/s
         90    3.795127565761E-001                                                     T               2         AD vind (tangential) at blade 2, node 11, m/s
         91   -2.775205636050E+000                                                     T               2         AD vind (axial) at blade 2, node 12, m/s
         92    3.536643687480E-001                                                     T               2         AD vind (tangential) at blade 2, node 12, m/s
         93   -2.629607984016E+000                                                     T               2         AD vind (axial) at blade 2, node 13, m/s
         94    3.123818793130E-001                                                     T               2         AD vind (tangential) at blade 2, node 13, m/s
         95   -2.742622818452E+000                                                     T               2         AD vind (axial) at blade 2, node 14, m/s
         96    2.913106164305E-001                                                     T               2         AD vind (tangential) at blade 2, node 14, m/s
         97   -2.901944550165E+000                                                     T               2         AD vind (axial) at blade 2, node 15, m/s
         98    2.748049507479E-001                                                     T               2         AD vind (tangential) at blade 2, node 15, m/s
         99   -3.158038346135E+000                                                     T               2         AD vind (axial) at blade 2, node 16, m/s
        100    2.660484785891E-001                                                     T               2         AD vind (tangential) at blade 2, node 16, m/s
        101   -3.472178040220E+000                                                     T               2         AD vind (axial) at blade 2, node 17, m/s
        102    2.630560436521E-001                                                     T               2         AD vind (tangential) at blade 2, node 17, m/s
        103   -3.619921492843E+000                                                     T               2         AD vind (axial) at blade 2, node 18, m/s
        104    2.592230073165E-001                                                     T               2         AD vind (tangential) at blade 2, node 18, m/s
        105   -7.912465409020E+000                                                     T               2         AD vind (axial) at blade 2, node 19, m/s
        106    0.000000000000E+000                                                     T               2         AD vind (tangential) at blade 2, node 19, m/s
        107   -7.544576758869E+000                                                     T               2         AD vind (axial) at blade 3, node 1, m/s
        108    0.000000000000E+000                                                     T               2         AD vind (tangential) at blade 3, node 1, m/s
        109    0.000000000000E+000                                                     T               2         AD vind (axial) at blade 3, node 2, m/s
        110    0.000000000000E+000                                                     T               2         AD vind (tangential) at blade 3, node 2, m/s
        111    0.000000000000E+000                                                     T               2         AD vind (axial) at blade 3, node 3, m/s
        112    0.000000000000E+000                                                     T               2         AD vind (tangential) at blade 3, node 3, m/s
        113    0.000000000000E+000                                                     T               2         AD vind (axial) at blade 3, node 4, m/s
        114    0.000000000000E+000                                                     T               2         AD vind (tangential) at blade 3, node 4, m/s
        115   -2.006426214819E+000                                                     T               2         AD vind (axial) at blade 3, node 5, m/s
        116    9.397330805657E-001                                                     T               2         AD vind (tangential) at blade 3, node 5, m/s
        117   -2.165461299150E+000                                                     T               2         AD vind (axial) at blade 3, node 6, m/s
        118    7.593185364279E-001                                                     T               2         AD vind (tangential) at blade 3, node 6, m/s
        119   -1.989453292642E+000                                                     T               2         AD vind (axial) at blade 3, node 7, m/s
        120    5.824932072179E-001                                                     T               2         AD vind (tangential) at blade 3, node 7, m/s
        121   -1.977976555695E+000                                                     T               2         AD vind (axial) at blade 3, node 8, m/s
        122    4.859233526286E-001                                                     T               2         AD vind (tangential) at blade 3, node 8, m/s
        123   -2.214654163991E+000                                                     T               2         AD vind (axial) at blade 3, node 9, m/s
        124    4.484686654110E-001                                                     T               2         AD vind (tangential) at blade 3, node 9, m/s
        125   -2.288824405700E+000                                                     T               2         AD vind (axial) at blade 3, node 10, m/s
        126    4.007242631924E-001                                                     T               2         AD vind (tangential) at blade 3, node 10, m/s
        127   -2.569409846765E+000                                                     T               2         AD vind (axial) at blade 3, node 11, m/s
        128    3.799763528259E-001                                                     T               2         AD vind (tangential) at blade 3, node 11, m/s
        129   -2.768013879357E+000                                                     T               2         AD vind (axial) at blade 3, node 12, m/s
        130    3.545734299896E-001                                                     T               2         AD vind (tangential) at blade 3, node 12, m/s
        131   -2.622691092593E+000                                                     T               2         AD vind (axial) at blade 3, node 13, m/s
        132    3.135973621541E-001                                                     T               2         AD vind (tangential) at blade 3, node 13, m/s
        133   -2.734782481940E+000                                                     T               2         AD vind (axial) at blade 3, node 14, m/s
        134    2.927915793296E-001                                                     T               2         AD vind (tangential) at blade 3, node 14, m/s
        135   -2.893691616779E+000                                                     T               2         AD vind (axial) at blade 3, node 15, m/s
        136    2.765247188636E-001                                                     T               2         AD vind (tangential) at blade 3, node 15, m/s
        137   -3.148755637143E+000                                                     T               2         AD vind (axial) at blade 3, node 16, m/s
        138    2.680110143967E-001                                                     T               2         AD vind (tangential) at blade 3, node 16, m/s
        139   -3.463576353831E+000                                                     T               2         AD vind (axial) at blade 3, node 17, m/s
        140    2.651380264954E-001                                                     T               2         AD vind (tangential) at blade 3, node 17, m/s
        141   -3.614543010683E+000                                                     T               2         AD vind (axial) at blade 3, node 18, m/s
        142    2.610680420398E-001                                                     T               2         AD vind (tangential) at blade 3, node 18, m/s
        143   -7.911084521957E+000                                                     T               2         AD vind (axial) at blade 3, node 19, m/s
        144    0.000000000000E+000                                                     T               2         AD vind (tangential) at blade 3, node 19, m/s
        145   -3.101183220186E+000                                                     T               2         AD First time derivative of vind (axial) at blade 1, node 1, m/s/s
        146    0.000000000000E+000                                                     T               2         AD First time derivative of vind (tangential) at blade 1, node 1, m/s/s
        147    0.000000000000E+000                                                     T               2         AD First time derivative of vind (axial) at blade 1, node 2, m/s/s
        148    0.000000000000E+000                                                     T               2         AD First time derivative of vind (tangential) at blade 1, node 2, m/s/s
        149    0.000000000000E+000                                                     T               2         AD First time derivative of vind (axial) at blade 1, node 3, m/s/s
        150    0.000000000000E+000                                                     T               2         AD First time derivative of vind (tangential) at blade 1, node 3, m/s/s
        151    0.000000000000E+000                                                     T               2         AD First time derivative of vind (axial) at blade 1, node 4, m/s/s
        152    0.000000000000E+000                                                     T               2         AD First time derivative of vind (tangential) at blade 1, node 4, m/s/s
        153   -8.059996082816E-001                                                     T               2         AD First time derivative of vind (axial) at blade 1, node 5, m/s/s
        154    3.793134035415E-001                                                     T               2         AD First time derivative of vind (tangential) at blade 1, node 5, m/s/s
        155   -8.700844262823E-001                                                     T               2         AD First time derivative of vind (axial) at blade 1, node 6, m/s/s
        156    3.055674772280E-001                                                     T               2         AD First time derivative of vind (tangential) at blade 1, node 6, m/s/s
        157   -7.983314532966E-001                                                     T               2         AD First time derivative of vind (axial) at blade 1, node 7, m/s/s
        158    2.338873891741E-001                                                     T               2         AD First time derivative of vind (tangential) at blade 1, node 7, m/s/s
        159   -7.929301131906E-001                                                     T               2         AD First time derivative of vind (axial) at blade 1, node 8, m/s/s
        160    1.947901466720E-001                                                     T               2         AD First time derivative of vind (tangential) at blade 1, node 8, m/s/s
        161   -8.874600757688E-001                                                     T               2         AD First time derivative of vind (axial) at blade 1, node 9, m/s/s
        162    1.795834192934E-001                                                     T               2         AD First time derivative of vind (tangential) at blade 1, node 9, m/s/s
        163   -9.171353439132E-001                                                     T               2         AD First time derivative of vind (axial) at blade 1, node 10, m/s/s
        164    1.603304658854E-001                                                     T               2         AD First time derivative of vind (tangential) at blade 1, node 10, m/s/s
        165   -1.030109935346E+000                                                     T               2         AD First time derivative of vind (axial) at blade 1, node 11, m/s/s
        166    1.519536618323E-001                                                     T               2         AD First time derivative of vind (tangential) at blade 1, node 11, m/s/s
        167   -1.110645835507E+000                                                     T               2         AD First time derivative of vind (axial) at blade 1, node 12, m/s/s
        168    1.417397509957E-001                                                     T               2         AD First time derivative of vind (tangential) at blade 1, node 12, m/s/s
        169   -1.052999659593E+000                                                     T               2         AD First time derivative of vind (axial) at blade 1, node 13, m/s/s
        170    1.253402799216E-001                                                     T               2         AD First time derivative of vind (tangential) at blade 1, node 13, m/s/s