
Linearized model: Predictions were generated on 11-Mar-2026 at 17:04:04 using OpenFAST, compiled on Mar 11 2026 at 16:48:05 as a 64-bit application using double precision at commit -128-NOTFOUND
 linked with  NWTC Subroutine Library; ElastoDyn; InflowWind; AeroDyn; ServoDyn

Description from the FAST input file: NREL 5.0 MW Baseline Wind Turbine (Onshore), Linearization with AeroDyn + ED

Simulation information:
   Simulation time:                    54.6200 s
   Rotor Speed:                         1.0003 rad/s
   Azimuth:                             0.0065 rad
   Wind Speed:                          8.0000 m/s
   Number of continuous states:       258
   Number of discrete states:           0
   Number of constraint states:         0
   Number of inputs:                   72
   Number of outputs:                   5
   Jacobians included in this file?    No

Order of continuous states:
   Row/Column Operating Point                                                   Rotating Frame? Derivative Order Description
   ---------- ---------------                                                   --------------- ---------------- -----------
          1    2.081804845037E-001                                                     F               2         ED 1st tower fore-aft bending mode DOF (internal DOF index = DOF_TFA1), m
          2    1.756586191763E-002                                                     F               2         ED 1st tower side-to-side bending mode DOF (internal DOF index = DOF_TSS1), m
          3   -7.230747776526E-005                                                     F               2         ED 2nd tower fore-aft bending mode DOF (internal DOF index = DOF_TFA2), m
          4    1.423561952867E-004                                                     F               2         ED 2nd tower side-to-side bending mode DOF (internal DOF index = DOF_TSS2), m
          5    4.716704988555E+000                                                     F               2         ED Variable speed generator DOF (internal DOF index = DOF_GeAz), rad
          6    2.180288972536E-003                                                     F               2         ED Drivetrain rotational-flexibility DOF (internal DOF index = DOF_DrTr), rad
          7    3.175794877314E+000                                                     T               2         ED 1st flapwise bending-mode DOF of blade 1 (internal DOF index = DOF_BF(1,1)), m
          8    3.350441442054E+000                                                     T               2         ED 1st flapwise bending-mode DOF of blade 2 (internal DOF index = DOF_BF(2,1)), m
          9    3.050098222547E+000                                                     T               2         ED 1st flapwise bending-mode DOF of blade 3 (internal DOF index = DOF_BF(3,1)), m
         10    8.347505918935E-002                                                     T               2         ED 1st edgewise bending-mode DOF of blade 1 (internal DOF index = DOF_BE(1,1)), m
         11   -3.111262601949E-001                                                     T               2         ED 1st edgewise bending-mode DOF of blade 2 (internal DOF index = DOF_BE(2,1)), m
         12    4.954065708318E-001                                                     T               2         ED 1st edgewise bending-mode DOF of blade 3 (internal DOF index = DOF_BE(3,1)), m
         13    5.581876150724E-002                                                     T               2         ED 2nd flapwise bending-mode DOF of blade 1 (internal DOF index = DOF_BF(1,2)), m
         14   -8.614905113445E-003                                                     T               2         ED 2nd flapwise bending-mode DOF of blade 2 (internal DOF index = DOF_BF(2,2)), m
         15    8.521223168506E-002                                                     T               2         ED 2nd flapwise bending-mode DOF of blade 3 (internal DOF index = DOF_BF(3,2)), m
         16    2.538770769223E-004                                                     F               2         ED First time derivative of 1st tower fore-aft bending mode DOF (internal DOF index = DOF_TFA1), m/s
         17    1.048030024285E-003                                                     F               2         ED First time derivative of 1st tower side-to-side bending mode DOF (internal DOF index = DOF_TSS1), m/s
         18   -2.945528012035E-005                                                     F               2         ED First time derivative of 2nd tower fore-aft bending mode DOF (internal DOF index = DOF_TFA2), m/s
         19   -4.084958530018E-005                                                     F               2         ED First time derivative of 2nd tower side-to-side bending mode DOF (internal DOF index = DOF_TSS2), m/s
         20    1.000433648626E+000                                                     F               2         ED First time derivative of Variable speed generator DOF (internal DOF index = DOF_GeAz), rad/s
         21   -9.388698976963E-005                                                     F               2         ED First time derivative of Drivetrain rotational-flexibility DOF (internal DOF index = DOF_DrTr), rad/s
         22    2.054008613232E-001                                                     T               2         ED First time derivative of 1st flapwise bending-mode DOF of blade 1 (internal DOF index = DOF_BF(1,1)), m/s
         23   -1.037800370307E-001                                                     T               2         ED First time derivative of 1st flapwise bending-mode DOF of blade 2 (internal DOF index = DOF_BF(2,1)), m/s
         24   -1.378641024245E-001                                                     T               2         ED First time derivative of 1st flapwise bending-mode DOF of blade 3 (internal DOF index = DOF_BF(3,1)), m/s
         25   -5.003038907529E-001                                                     T               2         ED First time derivative of 1st edgewise bending-mode DOF of blade 1 (internal DOF index = DOF_BE(1,1)), m/s
         26    2.762907020540E-001                                                     T               2         ED First time derivative of 1st edgewise bending-mode DOF of blade 2 (internal DOF index = DOF_BE(2,1)), m/s
         27    2.403834991620E-001                                                     T               2         ED First time derivative of 1st edgewise bending-mode DOF of blade 3 (internal DOF index = DOF_BE(3,1)), m/s
         28   -6.452412889341E-002                                                     T               2         ED First time derivative of 2nd flapwise bending-mode DOF of blade 1 (internal DOF index = DOF_BF(1,2)), m/s
         29    2.178474500404E-002                                                     T               2         ED First time derivative of 2nd flapwise bending-mode DOF of blade 2 (internal DOF index = DOF_BF(2,2)), m/s
         30    8.781892596697E-002                                                     T               2         ED First time derivative of 2nd flapwise bending-mode DOF of blade 3 (internal DOF index = DOF_BF(3,2)), m/s
         31   -7.783108823205E+000                                                     T               2         AD vind (axial) at blade 1, node 1, m/s
         32    0.000000000000E+000                                                     T               2         AD vind (tangential) at blade 1, node 1, m/s
         33    0.000000000000E+000                                                     T               2         AD vind (axial) at blade 1, node 2, m/s
         34    0.000000000000E+000                                                     T               2         AD vind (tangential) at blade 1, node 2, m/s
         35    0.000000000000E+000                                                     T               2         AD vind (axial) at blade 1, node 3, m/s
         36    0.000000000000E+000                                                     T               2         AD vind (tangential) at blade 1, node 3, m/s
         37    0.000000000000E+000                                                     T               2         AD vind (axial) at blade 1, node 4, m/s
         38    0.000000000000E+000                                                     T               2         AD vind (tangential) at blade 1, node 4, m/s
         39   -2.015520745452E+000                                                     T               2         AD vind (axial) at blade 1, node 5, m/s
         40    9.496338795691E-001                                                     T               2         AD vind (tangential) at blade 1, node 5, m/s
         41   -2.176718165147E+000                                                     T               2         AD vind (axial) at blade 1, node 6, m/s
         42    7.647125079806E-001                                                     T               2         AD vind (tangential) at blade 1, node 6, m/s
         43   -1.996917762895E+000                                                     T               2         AD vind (axial) at blade 1, node 7, m/s
         44    5.850862510181E-001                                                     T               2         AD vind (tangential) at blade 1, node 7, m/s
         45   -1.983142114270E+000                                                     T               2         AD vind (axial) at blade 1, node 8, m/s
         46    4.871235073331E-001                                                     T               2         AD vind (tangential) at blade 1, node 8, m/s
         47   -2.219586983823E+000                                                     T               2         AD vind (axial) at blade 1, node 9, m/s
         48    4.489963679788E-001                                                     T               2         AD vind (tangential) at blade 1, node 9, m/s
         49   -2.293976540978E+000                                                     T               2         AD vind (axial) at blade 1, node 10, m/s
         50    4.007726480927E-001                                                     T               2         AD vind (tangential) at blade 1, node 10, m/s
         51   -2.577327559177E+000                                                     T               2         AD vind (axial) at blade 1, node 11, m/s
         52    3.797696308934E-001                                                     T               2         AD vind (tangential) at blade 1, node 11, m/s
         53   -2.780074342970E+000                                                     T               2         AD vind (axial) at blade 1, node 12, m/s
         54    3.541657825640E-001                                                     T               2         AD vind (tangential) at blade 1, node 12, m/s
         55   -2.636992533548E+000                                                     T               2         AD vind (axial) at blade 1, node 13, m/s
         56    3.131274586349E-001                                                     T               2         AD vind (tangential) at blade 1, node 13, m/s
         57   -2.753889004459E+000                                                     T               2         AD vind (axial) at blade 1, node 14, m/s
         58    2.922431700862E-001                                                     T               2         AD vind (tangential) at blade 1, node 14, m/s
         59   -2.918255079853E+000                                                     T               2         AD vind (axial) at blade 1, node 15, m/s
         60    2.758439115194E-001                                                     T               2         AD vind (tangential) at blade 1, node 15, m/s
         61   -3.179861886404E+000                                                     T               2         AD vind (axial) at blade 1, node 16, m/s
         62    2.670355311614E-001                                                     T               2         AD vind (tangential) at blade 1, node 16, m/s
         63   -3.494926290274E+000                                                     T               2         AD vind (axial) at blade 1, node 17, m/s
         64    2.640200759352E-001                                                     T               2         AD vind (tangential) at blade 1, node 17, m/s
         65   -3.640894552042E+000                                                     T               2         AD vind (axial) at blade 1, node 18, m/s
         66    2.600682145692E-001                                                     T               2         AD vind (tangential) at blade 1, node 18, m/s
         67   -7.920414723084E+000                                                     T               2         AD vind (axial) at blade 1, node 19, m/s
         68    0.000000000000E+000                                                     T               2         AD vind (tangential) at blade 1, node 19, m/s
         69   -7.867200779727E+000                                                     T               2         AD vind (axial) at blade 2, node 1, m/s
         70    0.000000000000E+000                                                     T               2         AD vind (tangential) at blade 2, node 1, m/s
         71    0.000000000000E+000                                                     T               2         AD vind (axial) at blade 2, node 2, m/s
         72    0.000000000000E+000                                                     T               2         AD vind (tangential) at blade 2, node 2, m/s
         73    0.000000000000E+000                                                     T               2         AD vind (axial) at blade 2, node 3, m/s
         74    0.000000000000E+000                                                     T               2         AD vind (tangential) at blade 2, node 3, m/s
         75    0.000000000000E+000                                                     T               2         AD vind (axial) at blade 2, node 4, m/s
         76    0.000000000000E+000                                                     T               2         AD vind (tangential) at blade 2, node 4, m/s
         77   -2.024826420372E+000                                                     T               2         AD vind (axial) at blade 2, node 5, m/s
         78    9.548350159269E-001                                                     T               2         AD vind (tangential) at blade 2, node 5, m/s
         79   -2.183819510326E+000                                                     T               2         AD vind (axial) at blade 2, node 6, m/s
         80    7.675240794544E-001                                                     T               2         AD vind (tangential) at blade 2, node 6, m/s
         81   -2.001260832230E+000                                                     T               2         AD vind (axial) at blade 2, node 7, m/s
         82    5.864872011632E-001                                                     T               2         AD vind (tangential) at blade 2, node 7, m/s
         83   -1.985683870777E+000                                                     T               2         AD vind (axial) at blade 2, node 8, m/s
         84    4.877889093455E-001                                                     T               2         AD vind (tangential) at blade 2, node 8, m/s
         85   -2.220956265553E+000                                                     T               2         AD vind (axial) at blade 2, node 9, m/s
         86    4.492635629505E-001                                                     T               2         AD vind (tangential) at blade 2, node 9, m/s
         87   -2.293823810685E+000                                                     T               2         AD vind (axial) at blade 2, node 10, m/s
         88    4.007029828441E-001                                                     T               2         AD vind (tangential) at blade 2, node 10, m/s
         89   -2.575556538213E+000                                                     T               2         AD vind (axial) at blade 2, node 11, m/s
         90    3.794546973666E-001                                                     T               2         AD vind (tangential) at blade 2, node 11, m/s
         91   -2.775939218577E+000                                                     T               2         AD vind (axial) at blade 2, node 12, m/s
         92    3.536124724130E-001                                                     T               2         AD vind (tangential) at blade 2, node 12, m/s
         93   -2.630324600581E+000                                                     T               2         AD vind (axial) at blade 2, node 13, m/s
         94    3.123366739037E-001                                                     T               2         AD vind (tangential) at blade 2, node 13, m/s
         95   -2.743419325229E+000                                                     T               2         AD vind (axial) at blade 2, node 14, m/s
         96    2.912602643605E-001                                                     T               2         AD vind (tangential) at blade 2, node 14, m/s
         97   -2.902805937150E+000                                                     T               2         AD vind (axial) at blade 2, node 15, m/s
         98    2.747418995449E-001                                                     T               2         AD vind (tangential) at blade 2, node 15, m/s
         99   -3.158934168614E+000                                                     T               2         AD vind (axial) at blade 2, node 16, m/s
        100    2.659684521369E-001                                                     T               2         AD vind (tangential) at blade 2, node 16, m/s
        101   -3.472826236080E+000                                                     T               2         AD vind (axial) at blade 2, node 17, m/s
        102    2.629695277362E-001                                                     T               2         AD vind (tangential) at blade 2, node 17, m/s
        103   -3.620227800208E+000                                                     T               2         AD vind (axial) at blade 2, node 18, m/s
        104    2.591354194911E-001                                                     T               2         AD vind (tangential) at blade 2, node 18, m/s
        105   -7.911583201425E+000                                                     T               2         AD vind (axial) at blade 2, node 19, m/s
        106    0.000000000000E+000                                                     T               2         AD vind (tangential) at blade 2, node 19, m/s
        107   -7.544698520879E+000                                                     T               2         AD vind (axial) at blade 3, node 1, m/s
        108    0.000000000000E+000                                                     T               2         AD vind (tangential) at blade 3, node 1, m/s
        109    0.000000000000E+000                                                     T               2         AD vind (axial) at blade 3, node 2, m/s
        110    0.000000000000E+000                                                     T               2         AD vind (tangential) at blade 3, node 2, m/s
        111    0.000000000000E+000                                                     T               2         AD vind (axial) at blade 3, node 3, m/s
        112    0.000000000000E+000                                                     T               2         AD vind (tangential) at blade 3, node 3, m/s
        113    0.000000000000E+000                                                     T               2         AD vind (axial) at blade 3, node 4, m/s
        114    0.000000000000E+000                                                     T               2         AD vind (tangential) at blade 3, node 4, m/s
        115   -2.007048352838E+000                                                     T               2         AD vind (axial) at blade 3, node 5, m/s
        116    9.396804966525E-001                                                     T               2         AD vind (tangential) at blade 3, node 5, m/s
        117   -2.165544643229E+000                                                     T               2         AD vind (axial) at blade 3, node 6, m/s
        118    7.591344475044E-001                                                     T               2         AD vind (tangential) at blade 3, node 6, m/s
        119   -1.989462759550E+000                                                     T               2         AD vind (axial) at blade 3, node 7, m/s
        120    5.823353356996E-001                                                     T               2         AD vind (tangential) at blade 3, node 7, m/s
        121   -1.978014140359E+000                                                     T               2         AD vind (axial) at blade 3, node 8, m/s
        122    4.857949452358E-001                                                     T               2         AD vind (tangential) at blade 3, node 8, m/s
        123   -2.214884776530E+000                                                     T               2         AD vind (axial) at blade 3, node 9, m/s
        124    4.483731059197E-001                                                     T               2         AD vind (tangential) at blade 3, node 9, m/s
        125   -2.289140288776E+000                                                     T               2         AD vind (axial) at blade 3, node 10, m/s
        126    4.006463759711E-001                                                     T               2         AD vind (tangential) at blade 3, node 10, m/s
        127   -2.569983881914E+000                                                     T               2         AD vind (axial) at blade 3, node 11, m/s
        128    3.799153015158E-001                                                     T               2         AD vind (tangential) at blade 3, node 11, m/s
        129   -2.768789772436E+000                                                     T               2         AD vind (axial) at blade 3, node 12, m/s
        130    3.545195031205E-001                                                     T               2         AD vind (tangential) at blade 3, node 12, m/s
        131   -2.623464716962E+000                                                     T               2         AD vind (axial) at blade 3, node 13, m/s
        132    3.135512684183E-001                                                     T               2         AD vind (tangential) at blade 3, node 13, m/s
        133   -2.735674841475E+000                                                     T               2         AD vind (axial) at blade 3, node 14, m/s
        134    2.927423962236E-001                                                     T               2         AD vind (tangential) at blade 3, node 14, m/s
        135   -2.894702589166E+000                                                     T               2         AD vind (axial) at blade 3, node 15, m/s
        136    2.764656719968E-001                                                     T               2         AD vind (tangential) at blade 3, node 15, m/s
        137   -3.149864292615E+000                                                     T               2         AD vind (axial) at blade 3, node 16, m/s
        138    2.679375375209E-001                                                     T               2         AD vind (tangential) at blade 3, node 16, m/s
        139   -3.464477842219E+000                                                     T               2         AD vind (axial) at blade 3, node 17, m/s
        140    2.650589938818E-001                                                     T               2         AD vind (tangential) at blade 3, node 17, m/s
        141   -3.615098864290E+000                                                     T               2         AD vind (axial) at blade 3, node 18, m/s
        142    2.609903105187E-001                                                     T               2         AD vind (tangential) at blade 3, node 18, m/s
        143   -7.910358574463E+000                                                     T               2         AD vind (axial) at blade 3, node 19, m/s
        144    0.000000000000E+000                                                     T               2         AD vind (tangential) at blade 3, node 19, m/s
        145   -3.101230234859E+000                                                     T               2         AD First time derivative of vind (axial) at blade 1, node 1, m/s/s
        146    0.000000000000E+000                                                     T               2         AD First time derivative of vind (tangential) at blade 1, node 1, m/s/s
        147    0.000000000000E+000                                                     T               2         AD First time derivative of vind (axial) at blade 1, node 2, m/s/s
        148    0.000000000000E+000                                                     T               2         AD First time derivative of vind (tangential) at blade 1, node 2, m/s/s
        149    0.000000000000E+000                                                     T               2         AD First time derivative of vind (axial) at blade 1, node 3, m/s/s
        150    0.000000000000E+000                                                     T               2         AD First time derivative of vind (tangential) at blade 1, node 3, m/s/s
        151    0.000000000000E+000                                                     T               2         AD First time derivative of vind (axial) at blade 1, node 4, m/s/s
        152    0.000000000000E+000                                                     T               2         AD First time derivative of vind (tangential) at blade 1, node 4, m/s/s
        153   -8.062691168478E-001                                                     T               2         AD First time derivative of vind (axial) at blade 1, node 5, m/s/s
        154    3.792844242901E-001                                                     T               2         AD First time derivative of vind (tangential) at blade 1, node 5, m/s/s
        155   -8.701109521993E-001                                                     T               2         AD First time derivative of vind (axial) at blade 1, node 6, m/s/s
        156    3.054797614587E-001                                                     T               2         AD First time derivative of vind (tangential) at blade 1, node 6, m/s/s
        157   -7.983298065761E-001                                                     T               2         AD First time derivative of vind (axial) at blade 1, node 7, m/s/s
        158    2.338119656316E-001                                                     T               2         AD First time derivative of vind (tangential) at blade 1, node 7, m/s/s
        159   -7.929430385377E-001                                                     T               2         AD First time derivative of vind (axial) at blade 1, node 8, m/s/s
        160    1.947279244277E-001                                                     T               2         AD First time derivative of vind (tangential) at blade 1, node 8, m/s/s
        161   -8.875676713180E-001                                                     T               2         AD First time derivative of vind (axial) at blade 1, node 9, m/s/s
        162    1.795363153850E-001                                                     T               2         AD First time derivative of vind (tangential) at blade 1, node 9, m/s/s
        163   -9.172867307269E-001                                                     T               2         AD First time derivative of vind (axial) at blade 1, node 10, m/s/s
        164    1.602913914853E-001                                                     T               2         AD First time derivative of vind (tangential) at blade 1, node 10, m/s/s
        165   -1.030395492440E+000                                                     T               2         AD First time derivative of vind (axial) at blade 1, node 11, m/s/s
        166    1.519226825975E-001                                                     T               2         AD First time derivative of vind (tangential) at blade 1, node 11, m/s/s
        167   -1.111039635930E+000                                                     T               2         AD First time derivative of vind (axial) at blade 1, node 12, m/s/s
        168    1.417122071449E-001                                                     T               2         AD First time derivative of vind (tangential) at blade 1, node 12, m/s/s
        169   -1.053403738272E+000                                                     T               2         AD First time derivative of vind (axial) at blade 1, node 13, m/s/s
        170    1.253173366195E-001                                                     T               2         AD First time derivative of vind (tangential) at blade 1, node 13, m/s/s