
Linearized model: Predictions were generated on 13-Sep-2024 at 15:25:24 using OpenFAST, compiled on Sep 13 2024 at 13:41:05 as a 64-bit application using double precision at commit HEAD-HASH-NOTFOUND
 linked with  NWTC Subroutine Library; ElastoDyn; InflowWind; AeroDyn; ServoDyn

Description from the FAST input file: NREL 5.0 MW Baseline Wind Turbine (Onshore), Linearization with AeroDyn + ED

Simulation information:
   Simulation time:                   236.8100 s
   Rotor Speed:                         0.9982 rad/s
   Azimuth:                             0.0011 rad
   Wind Speed:                          8.0000 m/s
   Number of continuous states:       258
   Number of discrete states:           0
   Number of constraint states:         0
   Number of inputs:                   69
   Number of outputs:                   5
   Jacobians included in this file?    No

Order of continuous states:
   Row/Column Operating Point                                                   Rotating Frame? Derivative Order Description
   ---------- ---------------                                                   --------------- ---------------- -----------
          1    2.079524028169E-001                                                     F               2         ED 1st tower fore-aft bending mode DOF (internal DOF index = DOF_TFA1), m
          2    2.217545006935E-002                                                     F               2         ED 1st tower side-to-side bending mode DOF (internal DOF index = DOF_TSS1), m
          3   -7.359663120332E-005                                                     F               2         ED 2nd tower fore-aft bending mode DOF (internal DOF index = DOF_TFA2), m
          4    1.410955446686E-004                                                     F               2         ED 2nd tower side-to-side bending mode DOF (internal DOF index = DOF_TSS2), m
          5    4.711291959336E+000                                                     F               2         ED Variable speed generator DOF (internal DOF index = DOF_GeAz), rad
          6    2.185152075931E-003                                                     F               2         ED Drivetrain rotational-flexibility DOF (internal DOF index = DOF_DrTr), rad
          7    3.170511104300E+000                                                     T               2         ED 1st flapwise bending-mode DOF of blade 1 (internal DOF index = DOF_BF(1,1)), m
          8    3.348280469383E+000                                                     T               2         ED 1st flapwise bending-mode DOF of blade 2 (internal DOF index = DOF_BF(2,1)), m
          9    3.049629181236E+000                                                     T               2         ED 1st flapwise bending-mode DOF of blade 3 (internal DOF index = DOF_BF(3,1)), m
         10    8.540599537979E-002                                                     T               2         ED 1st edgewise bending-mode DOF of blade 1 (internal DOF index = DOF_BE(1,1)), m
         11   -3.197955549291E-001                                                     T               2         ED 1st edgewise bending-mode DOF of blade 2 (internal DOF index = DOF_BE(2,1)), m
         12    5.003044741223E-001                                                     T               2         ED 1st edgewise bending-mode DOF of blade 3 (internal DOF index = DOF_BE(3,1)), m
         13    5.635693515915E-002                                                     T               2         ED 2nd flapwise bending-mode DOF of blade 1 (internal DOF index = DOF_BF(1,2)), m
         14   -9.701334041759E-003                                                     T               2         ED 2nd flapwise bending-mode DOF of blade 2 (internal DOF index = DOF_BF(2,2)), m
         15    8.553596321374E-002                                                     T               2         ED 2nd flapwise bending-mode DOF of blade 3 (internal DOF index = DOF_BF(3,2)), m
         16    1.487090252210E-004                                                     F               2         ED First time derivative of 1st tower fore-aft bending mode DOF (internal DOF index = DOF_TFA1), m/s
         17   -3.417957889745E-003                                                     F               2         ED First time derivative of 1st tower side-to-side bending mode DOF (internal DOF index = DOF_TSS1), m/s
         18   -1.764155652162E-005                                                     F               2         ED First time derivative of 2nd tower fore-aft bending mode DOF (internal DOF index = DOF_TFA2), m/s
         19   -3.653447434650E-005                                                     F               2         ED First time derivative of 2nd tower side-to-side bending mode DOF (internal DOF index = DOF_TSS2), m/s
         20    9.983519721858E-001                                                     F               2         ED First time derivative of Variable speed generator DOF (internal DOF index = DOF_GeAz), rad/s
         21   -1.295657762332E-004                                                     F               2         ED First time derivative of Drivetrain rotational-flexibility DOF (internal DOF index = DOF_DrTr), rad/s
         22    2.109305857206E-001                                                     T               2         ED First time derivative of 1st flapwise bending-mode DOF of blade 1 (internal DOF index = DOF_BF(1,1)), m/s
         23   -9.588789707950E-002                                                     T               2         ED First time derivative of 1st flapwise bending-mode DOF of blade 2 (internal DOF index = DOF_BF(2,1)), m/s
         24   -1.588513390995E-001                                                     T               2         ED First time derivative of 1st flapwise bending-mode DOF of blade 3 (internal DOF index = DOF_BF(3,1)), m/s
         25   -5.478873142758E-001                                                     T               2         ED First time derivative of 1st edgewise bending-mode DOF of blade 1 (internal DOF index = DOF_BE(1,1)), m/s
         26    2.784504979362E-001                                                     T               2         ED First time derivative of 1st edgewise bending-mode DOF of blade 2 (internal DOF index = DOF_BE(2,1)), m/s
         27    2.930188096554E-001                                                     T               2         ED First time derivative of 1st edgewise bending-mode DOF of blade 3 (internal DOF index = DOF_BE(3,1)), m/s
         28   -6.783320412463E-002                                                     T               2         ED First time derivative of 2nd flapwise bending-mode DOF of blade 1 (internal DOF index = DOF_BF(1,2)), m/s
         29    1.979569284564E-002                                                     T               2         ED First time derivative of 2nd flapwise bending-mode DOF of blade 2 (internal DOF index = DOF_BF(2,2)), m/s
         30    9.439407729334E-002                                                     T               2         ED First time derivative of 2nd flapwise bending-mode DOF of blade 3 (internal DOF index = DOF_BF(3,2)), m/s
         31   -7.782879555993E+000                                                     T               2         AD vind (axial) at blade 1, node 1, m/s
         32    0.000000000000E+000                                                     T               2         AD vind (tangential) at blade 1, node 1, m/s
         33    0.000000000000E+000                                                     T               2         AD vind (axial) at blade 1, node 2, m/s
         34    0.000000000000E+000                                                     T               2         AD vind (tangential) at blade 1, node 2, m/s
         35    0.000000000000E+000                                                     T               2         AD vind (axial) at blade 1, node 3, m/s
         36    0.000000000000E+000                                                     T               2         AD vind (tangential) at blade 1, node 3, m/s
         37    0.000000000000E+000                                                     T               2         AD vind (axial) at blade 1, node 4, m/s
         38    0.000000000000E+000                                                     T               2         AD vind (tangential) at blade 1, node 4, m/s
         39   -2.011353268934E+000                                                     T               2         AD vind (axial) at blade 1, node 5, m/s
         40    9.500159798325E-001                                                     T               2         AD vind (tangential) at blade 1, node 5, m/s
         41   -2.176319646533E+000                                                     T               2         AD vind (axial) at blade 1, node 6, m/s
         42    7.660261444927E-001                                                     T               2         AD vind (tangential) at blade 1, node 6, m/s
         43   -1.996943540376E+000                                                     T               2         AD vind (axial) at blade 1, node 7, m/s
         44    5.862166605612E-001                                                     T               2         AD vind (tangential) at blade 1, node 7, m/s
         45   -1.982973722943E+000                                                     T               2         AD vind (axial) at blade 1, node 8, m/s
         46    4.880611386592E-001                                                     T               2         AD vind (tangential) at blade 1, node 8, m/s
         47   -2.218008717023E+000                                                     T               2         AD vind (axial) at blade 1, node 9, m/s
         48    4.497085583588E-001                                                     T               2         AD vind (tangential) at blade 1, node 9, m/s
         49   -2.291747006726E+000                                                     T               2         AD vind (axial) at blade 1, node 10, m/s
         50    4.013648954014E-001                                                     T               2         AD vind (tangential) at blade 1, node 10, m/s
         51   -2.573074841018E+000                                                     T               2         AD vind (axial) at blade 1, node 11, m/s
         52    3.802354092075E-001                                                     T               2         AD vind (tangential) at blade 1, node 11, m/s
         53   -2.774171348657E+000                                                     T               2         AD vind (axial) at blade 1, node 12, m/s
         54    3.545678760948E-001                                                     T               2         AD vind (tangential) at blade 1, node 12, m/s
         55   -2.630883853316E+000                                                     T               2         AD vind (axial) at blade 1, node 13, m/s
         56    3.134384427517E-001                                                     T               2         AD vind (tangential) at blade 1, node 13, m/s
         57   -2.746637850387E+000                                                     T               2         AD vind (axial) at blade 1, node 14, m/s
         58    2.925274250806E-001                                                     T               2         AD vind (tangential) at blade 1, node 14, m/s
         59   -2.909866134309E+000                                                     T               2         AD vind (axial) at blade 1, node 15, m/s
         60    2.761377891074E-001                                                     T               2         AD vind (tangential) at blade 1, node 15, m/s
         61   -3.170527902307E+000                                                     T               2         AD vind (axial) at blade 1, node 16, m/s
         62    2.673886208292E-001                                                     T               2         AD vind (tangential) at blade 1, node 16, m/s
         63   -3.486938775249E+000                                                     T               2         AD vind (axial) at blade 1, node 17, m/s
         64    2.643842468115E-001                                                     T               2         AD vind (tangential) at blade 1, node 17, m/s
         65   -3.635216571800E+000                                                     T               2         AD vind (axial) at blade 1, node 18, m/s
         66    2.604396142808E-001                                                     T               2         AD vind (tangential) at blade 1, node 18, m/s
         67   -7.921840119096E+000                                                     T               2         AD vind (axial) at blade 1, node 19, m/s
         68    0.000000000000E+000                                                     T               2         AD vind (tangential) at blade 1, node 19, m/s
         69   -7.867723270569E+000                                                     T               2         AD vind (axial) at blade 2, node 1, m/s
         70    0.000000000000E+000                                                     T               2         AD vind (tangential) at blade 2, node 1, m/s
         71    0.000000000000E+000                                                     T               2         AD vind (axial) at blade 2, node 2, m/s
         72    0.000000000000E+000                                                     T               2         AD vind (tangential) at blade 2, node 2, m/s
         73    0.000000000000E+000                                                     T               2         AD vind (axial) at blade 2, node 3, m/s
         74    0.000000000000E+000                                                     T               2         AD vind (tangential) at blade 2, node 3, m/s
         75    0.000000000000E+000                                                     T               2         AD vind (axial) at blade 2, node 4, m/s
         76    0.000000000000E+000                                                     T               2         AD vind (tangential) at blade 2, node 4, m/s
         77   -2.020237815466E+000                                                     T               2         AD vind (axial) at blade 2, node 5, m/s
         78    9.552101488652E-001                                                     T               2         AD vind (tangential) at blade 2, node 5, m/s
         79   -2.183316574008E+000                                                     T               2         AD vind (axial) at blade 2, node 6, m/s
         80    7.688744292428E-001                                                     T               2         AD vind (tangential) at blade 2, node 6, m/s
         81   -2.001230317200E+000                                                     T               2         AD vind (axial) at blade 2, node 7, m/s
         82    5.876346536541E-001                                                     T               2         AD vind (tangential) at blade 2, node 7, m/s
         83   -1.985468793853E+000                                                     T               2         AD vind (axial) at blade 2, node 8, m/s
         84    4.887307229050E-001                                                     T               2         AD vind (tangential) at blade 2, node 8, m/s
         85   -2.219317829180E+000                                                     T               2         AD vind (axial) at blade 2, node 9, m/s
         86    4.499697875355E-001                                                     T               2         AD vind (tangential) at blade 2, node 9, m/s
         87   -2.291560721263E+000                                                     T               2         AD vind (axial) at blade 2, node 10, m/s
         88    4.012861426928E-001                                                     T               2         AD vind (tangential) at blade 2, node 10, m/s
         89   -2.571307792605E+000                                                     T               2         AD vind (axial) at blade 2, node 11, m/s
         90    3.799098806542E-001                                                     T               2         AD vind (tangential) at blade 2, node 11, m/s
         91   -2.770131287131E+000                                                     T               2         AD vind (axial) at blade 2, node 12, m/s
         92    3.540073022603E-001                                                     T               2         AD vind (tangential) at blade 2, node 12, m/s
         93   -2.624361770938E+000                                                     T               2         AD vind (axial) at blade 2, node 13, m/s
         94    3.126456758228E-001                                                     T               2         AD vind (tangential) at blade 2, node 13, m/s
         95   -2.736422368695E+000                                                     T               2         AD vind (axial) at blade 2, node 14, m/s
         96    2.915523433610E-001                                                     T               2         AD vind (tangential) at blade 2, node 14, m/s
         97   -2.894808459029E+000                                                     T               2         AD vind (axial) at blade 2, node 15, m/s
         98    2.750578748458E-001                                                     T               2         AD vind (tangential) at blade 2, node 15, m/s
         99   -3.150094225970E+000                                                     T               2         AD vind (axial) at blade 2, node 16, m/s
        100    2.663606424633E-001                                                     T               2         AD vind (tangential) at blade 2, node 16, m/s
        101   -3.465436631833E+000                                                     T               2         AD vind (axial) at blade 2, node 17, m/s
        102    2.633871120340E-001                                                     T               2         AD vind (tangential) at blade 2, node 17, m/s
        103   -3.615292313734E+000                                                     T               2         AD vind (axial) at blade 2, node 18, m/s
        104    2.595737710115E-001                                                     T               2         AD vind (tangential) at blade 2, node 18, m/s
        105   -7.914770708006E+000                                                     T               2         AD vind (axial) at blade 2, node 19, m/s
        106    0.000000000000E+000                                                     T               2         AD vind (tangential) at blade 2, node 19, m/s
        107   -7.543998480305E+000                                                     T               2         AD vind (axial) at blade 3, node 1, m/s
        108    0.000000000000E+000                                                     T               2         AD vind (tangential) at blade 3, node 1, m/s
        109    0.000000000000E+000                                                     T               2         AD vind (axial) at blade 3, node 2, m/s
        110    0.000000000000E+000                                                     T               2         AD vind (tangential) at blade 3, node 2, m/s
        111    0.000000000000E+000                                                     T               2         AD vind (axial) at blade 3, node 3, m/s
        112    0.000000000000E+000                                                     T               2         AD vind (tangential) at blade 3, node 3, m/s
        113    0.000000000000E+000                                                     T               2         AD vind (axial) at blade 3, node 4, m/s
        114    0.000000000000E+000                                                     T               2         AD vind (tangential) at blade 3, node 4, m/s
        115   -2.002682699488E+000                                                     T               2         AD vind (axial) at blade 3, node 5, m/s
        116    9.401595209466E-001                                                     T               2         AD vind (tangential) at blade 3, node 5, m/s
        117   -2.164970173316E+000                                                     T               2         AD vind (axial) at blade 3, node 6, m/s
        118    7.605099235922E-001                                                     T               2         AD vind (tangential) at blade 3, node 6, m/s
        119   -1.989428828581E+000                                                     T               2         AD vind (axial) at blade 3, node 7, m/s
        120    5.835154759301E-001                                                     T               2         AD vind (tangential) at blade 3, node 7, m/s
        121   -1.977732994948E+000                                                     T               2         AD vind (axial) at blade 3, node 8, m/s
        122    4.867533338394E-001                                                     T               2         AD vind (tangential) at blade 3, node 8, m/s
        123   -2.213125282013E+000                                                     T               2         AD vind (axial) at blade 3, node 9, m/s
        124    4.490849524843E-001                                                     T               2         AD vind (tangential) at blade 3, node 9, m/s
        125   -2.286658569680E+000                                                     T               2         AD vind (axial) at blade 3, node 10, m/s
        126    4.012179304633E-001                                                     T               2         AD vind (tangential) at blade 3, node 10, m/s
        127   -2.565430177319E+000                                                     T               2         AD vind (axial) at blade 3, node 11, m/s
        128    3.803424040696E-001                                                     T               2         AD vind (tangential) at blade 3, node 11, m/s
        129   -2.762502484937E+000                                                     T               2         AD vind (axial) at blade 3, node 12, m/s
        130    3.548568989121E-001                                                     T               2         AD vind (tangential) at blade 3, node 12, m/s
        131   -2.617145959301E+000                                                     T               2         AD vind (axial) at blade 3, node 13, m/s
        132    3.137877158395E-001                                                     T               2         AD vind (tangential) at blade 3, node 13, m/s
        133   -2.728382279018E+000                                                     T               2         AD vind (axial) at blade 3, node 14, m/s
        134    2.929244292282E-001                                                     T               2         AD vind (tangential) at blade 3, node 14, m/s
        135   -2.886580149359E+000                                                     T               2         AD vind (axial) at blade 3, node 15, m/s
        136    2.766131920654E-001                                                     T               2         AD vind (tangential) at blade 3, node 15, m/s
        137   -3.140992320098E+000                                                     T               2         AD vind (axial) at blade 3, node 16, m/s
        138    2.680827392463E-001                                                     T               2         AD vind (tangential) at blade 3, node 16, m/s
        139   -3.456016917271E+000                                                     T               2         AD vind (axial) at blade 3, node 17, m/s
        140    2.651848804391E-001                                                     T               2         AD vind (tangential) at blade 3, node 17, m/s
        141   -3.607867399670E+000                                                     T               2         AD vind (axial) at blade 3, node 18, m/s
        142    2.610620796593E-001                                                     T               2         AD vind (tangential) at blade 3, node 18, m/s
        143   -7.903873861962E+000                                                     T               2         AD vind (axial) at blade 3, node 19, m/s
        144    0.000000000000E+000                                                     T               2         AD vind (tangential) at blade 3, node 19, m/s
        145   -3.101123970616E+000                                                     T               2         AD First time derivative of vind (axial) at blade 1, node 1, m/s/s
        146    0.000000000000E+000                                                     T               2         AD First time derivative of vind (tangential) at blade 1, node 1, m/s/s
        147    0.000000000000E+000                                                     T               2         AD First time derivative of vind (axial) at blade 1, node 2, m/s/s
        148    0.000000000000E+000                                                     T               2         AD First time derivative of vind (tangential) at blade 1, node 2, m/s/s
        149    0.000000000000E+000                                                     T               2         AD First time derivative of vind (axial) at blade 1, node 3, m/s/s
        150    0.000000000000E+000                                                     T               2         AD First time derivative of vind (tangential) at blade 1, node 3, m/s/s
        151    0.000000000000E+000                                                     T               2         AD First time derivative of vind (axial) at blade 1, node 4, m/s/s
        152    0.000000000000E+000                                                     T               2         AD First time derivative of vind (tangential) at blade 1, node 4, m/s/s
        153   -8.046389091609E-001                                                     T               2         AD First time derivative of vind (axial) at blade 1, node 5, m/s/s
        154    3.794376898696E-001                                                     T               2         AD First time derivative of vind (tangential) at blade 1, node 5, m/s/s
        155   -8.699495894514E-001                                                     T               2         AD First time derivative of vind (axial) at blade 1, node 6, m/s/s
        156    3.059933334080E-001                                                     T               2         AD First time derivative of vind (tangential) at blade 1, node 6, m/s/s
        157   -7.983384023957E-001                                                     T               2         AD First time derivative of vind (axial) at blade 1, node 7, m/s/s
        158    2.342536020304E-001                                                     T               2         AD First time derivative of vind (tangential) at blade 1, node 7, m/s/s
        159   -7.928735863311E-001                                                     T               2         AD First time derivative of vind (axial) at blade 1, node 8, m/s/s
        160    1.950930781996E-001                                                     T               2         AD First time derivative of vind (tangential) at blade 1, node 8, m/s/s
        161   -8.869484438743E-001                                                     T               2         AD First time derivative of vind (axial) at blade 1, node 9, m/s/s
        162    1.798128081037E-001                                                     T               2         AD First time derivative of vind (tangential) at blade 1, node 9, m/s/s
        163   -9.164132829228E-001                                                     T               2         AD First time derivative of vind (axial) at blade 1, node 10, m/s/s
        164    1.605203714607E-001                                                     T               2         AD First time derivative of vind (tangential) at blade 1, node 10, m/s/s
        165   -1.028739609292E+000                                                     T               2         AD First time derivative of vind (axial) at blade 1, node 11, m/s/s
        166    1.521019767257E-001                                                     T               2         AD First time derivative of vind (tangential) at blade 1, node 11, m/s/s
        167   -1.108746301450E+000                                                     T               2         AD First time derivative of vind (axial) at blade 1, node 12, m/s/s
        168    1.418659435981E-001                                                     T               2         AD First time derivative of vind (tangential) at blade 1, node 12, m/s/s
        169   -1.051047266856E+000                                                     T               2         AD First time derivative of vind (axial) at blade 1, node 13, m/s/s
        170    1.254361391629E-001                                                     T               2         AD First time derivative of vind (tangential) at blade 1, node 13, m/s/s