
Linearized model: Predictions were generated on 27-Feb-2025 at 19:39:48 using OpenFAST, compiled on Feb 27 2025 at 18:00:14 as a 64-bit application using double precision at commit HEAD-HASH-NOTFOUND
 linked with  NWTC Subroutine Library; ElastoDyn; InflowWind; AeroDyn; ServoDyn

Description from the FAST input file: NREL 5.0 MW Baseline Wind Turbine (Onshore), Linearization with AeroDyn + ED

Simulation information:
   Simulation time:                    62.9900 s
   Rotor Speed:                         1.0004 rad/s
   Azimuth:                             2.0951 rad
   Wind Speed:                          8.0000 m/s
   Number of continuous states:       258
   Number of discrete states:           0
   Number of constraint states:         0
   Number of inputs:                   69
   Number of outputs:                   5
   Jacobians included in this file?    No

Order of continuous states:
   Row/Column Operating Point                                                   Rotating Frame? Derivative Order Description
   ---------- ---------------                                                   --------------- ---------------- -----------
          1    2.082087387928E-001                                                     F               2         ED 1st tower fore-aft bending mode DOF (internal DOF index = DOF_TFA1), m
          2    2.222467087059E-002                                                     F               2         ED 1st tower side-to-side bending mode DOF (internal DOF index = DOF_TSS1), m
          3   -7.213151926193E-005                                                     F               2         ED 2nd tower fore-aft bending mode DOF (internal DOF index = DOF_TFA2), m
          4    1.410277840473E-004                                                     F               2         ED 2nd tower side-to-side bending mode DOF (internal DOF index = DOF_TSS2), m
          5    5.220767457711E-001                                                     F               2         ED Variable speed generator DOF (internal DOF index = DOF_GeAz), rad
          6    2.184376986827E-003                                                     F               2         ED Drivetrain rotational-flexibility DOF (internal DOF index = DOF_DrTr), rad
          7    3.350947537765E+000                                                     T               2         ED 1st flapwise bending-mode DOF of blade 1 (internal DOF index = DOF_BF(1,1)), m
          8    3.051175360913E+000                                                     T               2         ED 1st flapwise bending-mode DOF of blade 2 (internal DOF index = DOF_BF(2,1)), m
          9    3.175488896658E+000                                                     T               2         ED 1st flapwise bending-mode DOF of blade 3 (internal DOF index = DOF_BF(3,1)), m
         10   -3.122777615033E-001                                                     T               2         ED 1st edgewise bending-mode DOF of blade 1 (internal DOF index = DOF_BE(1,1)), m
         11    4.944725339447E-001                                                     T               2         ED 1st edgewise bending-mode DOF of blade 2 (internal DOF index = DOF_BE(2,1)), m
         12    8.496683784403E-002                                                     T               2         ED 1st edgewise bending-mode DOF of blade 3 (internal DOF index = DOF_BE(3,1)), m
         13   -8.661171948742E-003                                                     T               2         ED 2nd flapwise bending-mode DOF of blade 1 (internal DOF index = DOF_BF(1,2)), m
         14    8.477364673305E-002                                                     T               2         ED 2nd flapwise bending-mode DOF of blade 2 (internal DOF index = DOF_BF(2,2)), m
         15    5.604389412980E-002                                                     T               2         ED 2nd flapwise bending-mode DOF of blade 3 (internal DOF index = DOF_BF(3,2)), m
         16    1.004588673433E-005                                                     F               2         ED First time derivative of 1st tower fore-aft bending mode DOF (internal DOF index = DOF_TFA1), m/s
         17   -8.209651803502E-003                                                     F               2         ED First time derivative of 1st tower side-to-side bending mode DOF (internal DOF index = DOF_TSS1), m/s
         18   -3.263127731251E-005                                                     F               2         ED First time derivative of 2nd tower fore-aft bending mode DOF (internal DOF index = DOF_TFA2), m/s
         19   -3.155334125778E-005                                                     F               2         ED First time derivative of 2nd tower side-to-side bending mode DOF (internal DOF index = DOF_TSS2), m/s
         20    1.000432671123E+000                                                     F               2         ED First time derivative of Variable speed generator DOF (internal DOF index = DOF_GeAz), rad/s
         21   -6.643137546711E-005                                                     F               2         ED First time derivative of Drivetrain rotational-flexibility DOF (internal DOF index = DOF_DrTr), rad/s
         22   -1.064246119528E-001                                                     T               2         ED First time derivative of 1st flapwise bending-mode DOF of blade 1 (internal DOF index = DOF_BF(1,1)), m/s
         23   -1.323212226326E-001                                                     T               2         ED First time derivative of 1st flapwise bending-mode DOF of blade 2 (internal DOF index = DOF_BF(2,1)), m/s
         24    2.042518249873E-001                                                     T               2         ED First time derivative of 1st flapwise bending-mode DOF of blade 3 (internal DOF index = DOF_BF(3,1)), m/s
         25    2.737766584095E-001                                                     T               2         ED First time derivative of 1st edgewise bending-mode DOF of blade 1 (internal DOF index = DOF_BE(1,1)), m/s
         26    2.461867685563E-001                                                     T               2         ED First time derivative of 1st edgewise bending-mode DOF of blade 2 (internal DOF index = DOF_BE(2,1)), m/s
         27   -4.988641331217E-001                                                     T               2         ED First time derivative of 1st edgewise bending-mode DOF of blade 3 (internal DOF index = DOF_BE(3,1)), m/s
         28    2.204796776405E-002                                                     T               2         ED First time derivative of 2nd flapwise bending-mode DOF of blade 1 (internal DOF index = DOF_BF(1,2)), m/s
         29    8.785743366769E-002                                                     T               2         ED First time derivative of 2nd flapwise bending-mode DOF of blade 2 (internal DOF index = DOF_BF(2,2)), m/s
         30   -6.373321941795E-002                                                     T               2         ED First time derivative of 2nd flapwise bending-mode DOF of blade 3 (internal DOF index = DOF_BF(3,2)), m/s
         31   -7.867603142361E+000                                                     T               2         AD vind (axial) at blade 1, node 1, m/s
         32    0.000000000000E+000                                                     T               2         AD vind (tangential) at blade 1, node 1, m/s
         33    0.000000000000E+000                                                     T               2         AD vind (axial) at blade 1, node 2, m/s
         34    0.000000000000E+000                                                     T               2         AD vind (tangential) at blade 1, node 2, m/s
         35    0.000000000000E+000                                                     T               2         AD vind (axial) at blade 1, node 3, m/s
         36    0.000000000000E+000                                                     T               2         AD vind (tangential) at blade 1, node 3, m/s
         37    0.000000000000E+000                                                     T               2         AD vind (axial) at blade 1, node 4, m/s
         38    0.000000000000E+000                                                     T               2         AD vind (tangential) at blade 1, node 4, m/s
         39   -2.024133914930E+000                                                     T               2         AD vind (axial) at blade 1, node 5, m/s
         40    9.548509573289E-001                                                     T               2         AD vind (tangential) at blade 1, node 5, m/s
         41   -2.183685313076E+000                                                     T               2         AD vind (axial) at blade 1, node 6, m/s
         42    7.676846338607E-001                                                     T               2         AD vind (tangential) at blade 1, node 6, m/s
         43   -2.001212402288E+000                                                     T               2         AD vind (axial) at blade 1, node 7, m/s
         44    5.866305684992E-001                                                     T               2         AD vind (tangential) at blade 1, node 7, m/s
         45   -1.985619946884E+000                                                     T               2         AD vind (axial) at blade 1, node 8, m/s
         46    4.879093991790E-001                                                     T               2         AD vind (tangential) at blade 1, node 8, m/s
         47   -2.220706066639E+000                                                     T               2         AD vind (axial) at blade 1, node 9, m/s
         48    4.493551816812E-001                                                     T               2         AD vind (tangential) at blade 1, node 9, m/s
         49   -2.293500031408E+000                                                     T               2         AD vind (axial) at blade 1, node 10, m/s
         50    4.007807588493E-001                                                     T               2         AD vind (tangential) at blade 1, node 10, m/s
         51   -2.574980745600E+000                                                     T               2         AD vind (axial) at blade 1, node 11, m/s
         52    3.795190199191E-001                                                     T               2         AD vind (tangential) at blade 1, node 11, m/s
         53   -2.775179930067E+000                                                     T               2         AD vind (axial) at blade 1, node 12, m/s
         54    3.536746118852E-001                                                     T               2         AD vind (tangential) at blade 1, node 12, m/s
         55   -2.629581527963E+000                                                     T               2         AD vind (axial) at blade 1, node 13, m/s
         56    3.123957837633E-001                                                     T               2         AD vind (tangential) at blade 1, node 13, m/s
         57   -2.742579011418E+000                                                     T               2         AD vind (axial) at blade 1, node 14, m/s
         58    2.913300777031E-001                                                     T               2         AD vind (tangential) at blade 1, node 14, m/s
         59   -2.901868832754E+000                                                     T               2         AD vind (axial) at blade 1, node 15, m/s
         60    2.748326326138E-001                                                     T               2         AD vind (tangential) at blade 1, node 15, m/s
         61   -3.157923673409E+000                                                     T               2         AD vind (axial) at blade 1, node 16, m/s
         62    2.660878816194E-001                                                     T               2         AD vind (tangential) at blade 1, node 16, m/s
         63   -3.472138792851E+000                                                     T               2         AD vind (axial) at blade 1, node 17, m/s
         64    2.631065160238E-001                                                     T               2         AD vind (tangential) at blade 1, node 17, m/s
         65   -3.620057896645E+000                                                     T               2         AD vind (axial) at blade 1, node 18, m/s
         66    2.592868416117E-001                                                     T               2         AD vind (tangential) at blade 1, node 18, m/s
         67   -7.913886134885E+000                                                     T               2         AD vind (axial) at blade 1, node 19, m/s
         68    0.000000000000E+000                                                     T               2         AD vind (tangential) at blade 1, node 19, m/s
         69   -7.544179787872E+000                                                     T               2         AD vind (axial) at blade 2, node 1, m/s
         70    0.000000000000E+000                                                     T               2         AD vind (tangential) at blade 2, node 1, m/s
         71    0.000000000000E+000                                                     T               2         AD vind (axial) at blade 2, node 2, m/s
         72    0.000000000000E+000                                                     T               2         AD vind (tangential) at blade 2, node 2, m/s
         73    0.000000000000E+000                                                     T               2         AD vind (axial) at blade 2, node 3, m/s
         74    0.000000000000E+000                                                     T               2         AD vind (tangential) at blade 2, node 3, m/s
         75    0.000000000000E+000                                                     T               2         AD vind (axial) at blade 2, node 4, m/s
         76    0.000000000000E+000                                                     T               2         AD vind (tangential) at blade 2, node 4, m/s
         77   -2.006221468464E+000                                                     T               2         AD vind (axial) at blade 2, node 5, m/s
         78    9.397675069561E-001                                                     T               2         AD vind (tangential) at blade 2, node 5, m/s
         79   -2.165394045360E+000                                                     T               2         AD vind (axial) at blade 2, node 6, m/s
         80    7.593687222454E-001                                                     T               2         AD vind (tangential) at blade 2, node 6, m/s
         81   -1.989414540213E+000                                                     T               2         AD vind (axial) at blade 2, node 7, m/s
         82    5.825339319401E-001                                                     T               2         AD vind (tangential) at blade 2, node 7, m/s
         83   -1.977922682540E+000                                                     T               2         AD vind (axial) at blade 2, node 8, m/s
         84    4.859523411705E-001                                                     T               2         AD vind (tangential) at blade 2, node 8, m/s
         85   -2.214538650126E+000                                                     T               2         AD vind (axial) at blade 2, node 9, m/s
         86    4.484856697432E-001                                                     T               2         AD vind (tangential) at blade 2, node 9, m/s
         87   -2.288679883093E+000                                                     T               2         AD vind (axial) at blade 2, node 10, m/s
         88    4.007334689418E-001                                                     T               2         AD vind (tangential) at blade 2, node 10, m/s
         89   -2.569198578537E+000                                                     T               2         AD vind (axial) at blade 2, node 11, m/s
         90    3.799780892278E-001                                                     T               2         AD vind (tangential) at blade 2, node 11, m/s
         91   -2.767742567189E+000                                                     T               2         AD vind (axial) at blade 2, node 12, m/s
         92    3.545683431354E-001                                                     T               2         AD vind (tangential) at blade 2, node 12, m/s
         93   -2.622448774393E+000                                                     T               2         AD vind (axial) at blade 2, node 13, m/s
         94    3.135876127981E-001                                                     T               2         AD vind (tangential) at blade 2, node 13, m/s
         95   -2.734541227783E+000                                                     T               2         AD vind (axial) at blade 2, node 14, m/s
         96    2.927763672492E-001                                                     T               2         AD vind (tangential) at blade 2, node 14, m/s
         97   -2.893478262345E+000                                                     T               2         AD vind (axial) at blade 2, node 15, m/s
         98    2.765028673554E-001                                                     T               2         AD vind (tangential) at blade 2, node 15, m/s
         99   -3.148574772131E+000                                                     T               2         AD vind (axial) at blade 2, node 16, m/s
        100    2.679807887373E-001                                                     T               2         AD vind (tangential) at blade 2, node 16, m/s
        101   -3.463312263148E+000                                                     T               2         AD vind (axial) at blade 2, node 17, m/s
        102    2.651013228943E-001                                                     T               2         AD vind (tangential) at blade 2, node 17, m/s
        103   -3.614181570027E+000                                                     T               2         AD vind (axial) at blade 2, node 18, m/s
        104    2.610208234613E-001                                                     T               2         AD vind (tangential) at blade 2, node 18, m/s
        105   -7.909778217368E+000                                                     T               2         AD vind (axial) at blade 2, node 19, m/s
        106    0.000000000000E+000                                                     T               2         AD vind (tangential) at blade 2, node 19, m/s
        107   -7.782703904859E+000                                                     T               2         AD vind (axial) at blade 3, node 1, m/s
        108    0.000000000000E+000                                                     T               2         AD vind (tangential) at blade 3, node 1, m/s
        109    0.000000000000E+000                                                     T               2         AD vind (axial) at blade 3, node 2, m/s
        110    0.000000000000E+000                                                     T               2         AD vind (tangential) at blade 3, node 2, m/s
        111    0.000000000000E+000                                                     T               2         AD vind (axial) at blade 3, node 3, m/s
        112    0.000000000000E+000                                                     T               2         AD vind (tangential) at blade 3, node 3, m/s
        113    0.000000000000E+000                                                     T               2         AD vind (axial) at blade 3, node 4, m/s
        114    0.000000000000E+000                                                     T               2         AD vind (tangential) at blade 3, node 4, m/s
        115   -2.015044804808E+000                                                     T               2         AD vind (axial) at blade 3, node 5, m/s
        116    9.496604547344E-001                                                     T               2         AD vind (tangential) at blade 3, node 5, m/s
        117   -2.176666558774E+000                                                     T               2         AD vind (axial) at blade 3, node 6, m/s
        118    7.648687253410E-001                                                     T               2         AD vind (tangential) at blade 3, node 6, m/s
        119   -1.996918775945E+000                                                     T               2         AD vind (axial) at blade 3, node 7, m/s
        120    5.852312529502E-001                                                     T               2         AD vind (tangential) at blade 3, node 7, m/s
        121   -1.983120927226E+000                                                     T               2         AD vind (axial) at blade 3, node 8, m/s
        122    4.872485951054E-001                                                     T               2         AD vind (tangential) at blade 3, node 8, m/s
        123   -2.219373092688E+000                                                     T               2         AD vind (axial) at blade 3, node 9, m/s
        124    4.490926549043E-001                                                     T               2         AD vind (tangential) at blade 3, node 9, m/s
        125   -2.293674588664E+000                                                     T               2         AD vind (axial) at blade 3, node 10, m/s
        126    4.008530739787E-001                                                     T               2         AD vind (tangential) at blade 3, node 10, m/s
        127   -2.576750313483E+000                                                     T               2         AD vind (axial) at blade 3, node 11, m/s
        128    3.798325716423E-001                                                     T               2         AD vind (tangential) at blade 3, node 11, m/s
        129   -2.779286443067E+000                                                     T               2         AD vind (axial) at blade 3, node 12, m/s
        130    3.542206698410E-001                                                     T               2         AD vind (tangential) at blade 3, node 12, m/s
        131   -2.636184180577E+000                                                     T               2         AD vind (axial) at blade 3, node 13, m/s
        132    3.131710599529E-001                                                     T               2         AD vind (tangential) at blade 3, node 13, m/s
        133   -2.752944890509E+000                                                     T               2         AD vind (axial) at blade 3, node 14, m/s
        134    2.922860830959E-001                                                     T               2         AD vind (tangential) at blade 3, node 14, m/s
        135   -2.917178213027E+000                                                     T               2         AD vind (axial) at blade 3, node 15, m/s
        136    2.758919660192E-001                                                     T               2         AD vind (tangential) at blade 3, node 15, m/s
        137   -3.178682871784E+000                                                     T               2         AD vind (axial) at blade 3, node 16, m/s
        138    2.670933834368E-001                                                     T               2         AD vind (tangential) at blade 3, node 16, m/s
        139   -3.493952718260E+000                                                     T               2         AD vind (axial) at blade 3, node 17, m/s
        140    2.640777984430E-001                                                     T               2         AD vind (tangential) at blade 3, node 17, m/s
        141   -3.640220897300E+000                                                     T               2         AD vind (axial) at blade 3, node 18, m/s
        142    2.601199349746E-001                                                     T               2         AD vind (tangential) at blade 3, node 18, m/s
        143   -7.920509080899E+000                                                     T               2         AD vind (axial) at blade 3, node 19, m/s
        144    0.000000000000E+000                                                     T               2         AD vind (tangential) at blade 3, node 19, m/s
        145   -3.135340010892E+000                                                     T               2         AD First time derivative of vind (axial) at blade 1, node 1, m/s/s
        146    0.000000000000E+000                                                     T               2         AD First time derivative of vind (tangential) at blade 1, node 1, m/s/s
        147    0.000000000000E+000                                                     T               2         AD First time derivative of vind (axial) at blade 1, node 2, m/s/s
        148    0.000000000000E+000                                                     T               2         AD First time derivative of vind (tangential) at blade 1, node 2, m/s/s
        149    0.000000000000E+000                                                     T               2         AD First time derivative of vind (axial) at blade 1, node 3, m/s/s
        150    0.000000000000E+000                                                     T               2         AD First time derivative of vind (tangential) at blade 1, node 3, m/s/s
        151    0.000000000000E+000                                                     T               2         AD First time derivative of vind (axial) at blade 1, node 4, m/s/s
        152    0.000000000000E+000                                                     T               2         AD First time derivative of vind (tangential) at blade 1, node 4, m/s/s
        153   -8.087714481562E-001                                                     T               2         AD First time derivative of vind (axial) at blade 1, node 5, m/s/s
        154    3.811117947799E-001                                                     T               2         AD First time derivative of vind (tangential) at blade 1, node 5, m/s/s
        155   -8.723785223251E-001                                                     T               2         AD First time derivative of vind (axial) at blade 1, node 6, m/s/s
        156    3.065163788748E-001                                                     T               2         AD First time derivative of vind (tangential) at blade 1, node 6, m/s/s
        157   -7.997228428791E-001                                                     T               2         AD First time derivative of vind (axial) at blade 1, node 7, m/s/s
        158    2.343329715270E-001                                                     T               2         AD First time derivative of vind (tangential) at blade 1, node 7, m/s/s
        159   -7.937259356854E-001                                                     T               2         AD First time derivative of vind (axial) at blade 1, node 8, m/s/s
        160    1.949729217100E-001                                                     T               2         AD First time derivative of vind (tangential) at blade 1, node 8, m/s/s
        161   -8.879455782302E-001                                                     T               2         AD First time derivative of vind (axial) at blade 1, node 9, m/s/s
        162    1.796241646362E-001                                                     T               2         AD First time derivative of vind (tangential) at blade 1, node 9, m/s/s
        163   -9.172493587765E-001                                                     T               2         AD First time derivative of vind (axial) at blade 1, node 10, m/s/s
        164    1.602517491477E-001                                                     T               2         AD First time derivative of vind (tangential) at blade 1, node 10, m/s/s
        165   -1.030065232662E+000                                                     T               2         AD First time derivative of vind (axial) at blade 1, node 11, m/s/s
        166    1.517897538085E-001                                                     T               2         AD First time derivative of vind (tangential) at blade 1, node 11, m/s/s
        167   -1.110432080601E+000                                                     T               2         AD First time derivative of vind (axial) at blade 1, node 12, m/s/s
        168    1.414922484730E-001                                                     T               2         AD First time derivative of vind (tangential) at blade 1, node 12, m/s/s
        169   -1.052531957633E+000                                                     T               2         AD First time derivative of vind (axial) at blade 1, node 13, m/s/s
        170    1.250259992335E-001                                                     T               2         AD First time derivative of vind (tangential) at blade 1, node 13, m/s/s