
Linearized model: Predictions were generated on 03-Jun-2024 at 16:51:59 using OpenFAST, compiled on Jun  3 2024 at 16:15:14 as a 64-bit application using double precision at commit HEAD-HASH-NOTFOUND
 linked with  NWTC Subroutine Library; ElastoDyn; InflowWind; AeroDyn; ServoDyn

Description from the FAST input file: NREL 5.0 MW Baseline Wind Turbine (Onshore), Linearization with AeroDyn + ED

Simulation information:
   Simulation time:                   408.5400 s
   Rotor Speed:                         1.0001 rad/s
   Azimuth:                             2.0955 rad
   Wind Speed:                          8.0000 m/s
   Number of continuous states:       258
   Number of discrete states:           0
   Number of constraint states:         0
   Number of inputs:                   69
   Number of outputs:                   5
   Jacobians included in this file?    No

Order of continuous states:
   Row/Column Operating Point                                                   Rotating Frame? Derivative Order Description
   ---------- ---------------                                                   --------------- ---------------- -----------
          1    2.082184345087E-001                                                     F               2         ED 1st tower fore-aft bending mode DOF (internal DOF index = DOF_TFA1), m
          2    2.179973881728E-002                                                     F               2         ED 1st tower side-to-side bending mode DOF (internal DOF index = DOF_TSS1), m
          3   -7.278458858843E-005                                                     F               2         ED 2nd tower fore-aft bending mode DOF (internal DOF index = DOF_TFA2), m
          4    1.409102924332E-004                                                     F               2         ED 2nd tower side-to-side bending mode DOF (internal DOF index = DOF_TSS2), m
          5    5.224955259774E-001                                                     F               2         ED Variable speed generator DOF (internal DOF index = DOF_GeAz), rad
          6    2.180687144924E-003                                                     F               2         ED Drivetrain rotational-flexibility DOF (internal DOF index = DOF_DrTr), rad
          7    3.351702821079E+000                                                     T               2         ED 1st flapwise bending-mode DOF of blade 1 (internal DOF index = DOF_BF(1,1)), m
          8    3.050671286678E+000                                                     T               2         ED 1st flapwise bending-mode DOF of blade 2 (internal DOF index = DOF_BF(2,1)), m
          9    3.175427916129E+000                                                     T               2         ED 1st flapwise bending-mode DOF of blade 3 (internal DOF index = DOF_BF(3,1)), m
         10   -3.124863358043E-001                                                     T               2         ED 1st edgewise bending-mode DOF of blade 1 (internal DOF index = DOF_BE(1,1)), m
         11    4.941953610587E-001                                                     T               2         ED 1st edgewise bending-mode DOF of blade 2 (internal DOF index = DOF_BE(2,1)), m
         12    8.524320278915E-002                                                     T               2         ED 1st edgewise bending-mode DOF of blade 3 (internal DOF index = DOF_BE(3,1)), m
         13   -8.630278872240E-003                                                     T               2         ED 2nd flapwise bending-mode DOF of blade 1 (internal DOF index = DOF_BF(1,2)), m
         14    8.461489857395E-002                                                     T               2         ED 2nd flapwise bending-mode DOF of blade 2 (internal DOF index = DOF_BF(2,2)), m
         15    5.602202065370E-002                                                     T               2         ED 2nd flapwise bending-mode DOF of blade 3 (internal DOF index = DOF_BF(3,2)), m
         16    6.141403361400E-005                                                     F               2         ED First time derivative of 1st tower fore-aft bending mode DOF (internal DOF index = DOF_TFA1), m/s
         17   -8.611307786913E-004                                                     F               2         ED First time derivative of 1st tower side-to-side bending mode DOF (internal DOF index = DOF_TSS1), m/s
         18   -2.629079809330E-005                                                     F               2         ED First time derivative of 2nd tower fore-aft bending mode DOF (internal DOF index = DOF_TFA2), m/s
         19   -3.501743992670E-005                                                     F               2         ED First time derivative of 2nd tower side-to-side bending mode DOF (internal DOF index = DOF_TSS2), m/s
         20    1.000240644956E+000                                                     F               2         ED First time derivative of Variable speed generator DOF (internal DOF index = DOF_GeAz), rad/s
         21   -1.270636358460E-004                                                     F               2         ED First time derivative of Drivetrain rotational-flexibility DOF (internal DOF index = DOF_DrTr), rad/s
         22   -1.059138591203E-001                                                     T               2         ED First time derivative of 1st flapwise bending-mode DOF of blade 1 (internal DOF index = DOF_BF(1,1)), m/s
         23   -1.290085634676E-001                                                     T               2         ED First time derivative of 1st flapwise bending-mode DOF of blade 2 (internal DOF index = DOF_BF(2,1)), m/s
         24    2.048363464001E-001                                                     T               2         ED First time derivative of 1st flapwise bending-mode DOF of blade 3 (internal DOF index = DOF_BF(3,1)), m/s
         25    2.715163304082E-001                                                     T               2         ED First time derivative of 1st edgewise bending-mode DOF of blade 1 (internal DOF index = DOF_BE(1,1)), m/s
         26    2.490822797853E-001                                                     T               2         ED First time derivative of 1st edgewise bending-mode DOF of blade 2 (internal DOF index = DOF_BE(2,1)), m/s
         27   -5.011925710173E-001                                                     T               2         ED First time derivative of 1st edgewise bending-mode DOF of blade 3 (internal DOF index = DOF_BE(3,1)), m/s
         28    2.181292717970E-002                                                     T               2         ED First time derivative of 2nd flapwise bending-mode DOF of blade 1 (internal DOF index = DOF_BF(1,2)), m/s
         29    8.956058815668E-002                                                     T               2         ED First time derivative of 2nd flapwise bending-mode DOF of blade 2 (internal DOF index = DOF_BF(2,2)), m/s
         30   -6.231689782554E-002                                                     T               2         ED First time derivative of 2nd flapwise bending-mode DOF of blade 3 (internal DOF index = DOF_BF(3,2)), m/s
         31   -7.867540042548E+000                                                     T               2         AD vind (axial) at blade 1, node 1, m/s
         32    0.000000000000E+000                                                     T               2         AD vind (tangential) at blade 1, node 1, m/s
         33    0.000000000000E+000                                                     T               2         AD vind (axial) at blade 1, node 2, m/s
         34    0.000000000000E+000                                                     T               2         AD vind (tangential) at blade 1, node 2, m/s
         35    0.000000000000E+000                                                     T               2         AD vind (axial) at blade 1, node 3, m/s
         36    0.000000000000E+000                                                     T               2         AD vind (tangential) at blade 1, node 3, m/s
         37    0.000000000000E+000                                                     T               2         AD vind (axial) at blade 1, node 4, m/s
         38    0.000000000000E+000                                                     T               2         AD vind (tangential) at blade 1, node 4, m/s
         39   -2.023641627458E+000                                                     T               2         AD vind (axial) at blade 1, node 5, m/s
         40    9.548970042396E-001                                                     T               2         AD vind (tangential) at blade 1, node 5, m/s
         41   -2.183641289301E+000                                                     T               2         AD vind (axial) at blade 1, node 6, m/s
         42    7.678254604893E-001                                                     T               2         AD vind (tangential) at blade 1, node 6, m/s
         43   -2.001211623429E+000                                                     T               2         AD vind (axial) at blade 1, node 7, m/s
         44    5.867445766571E-001                                                     T               2         AD vind (tangential) at blade 1, node 7, m/s
         45   -1.985599343792E+000                                                     T               2         AD vind (axial) at blade 1, node 8, m/s
         46    4.879997006994E-001                                                     T               2         AD vind (tangential) at blade 1, node 8, m/s
         47   -2.220548988649E+000                                                     T               2         AD vind (axial) at blade 1, node 9, m/s
         48    4.494204939555E-001                                                     T               2         AD vind (tangential) at blade 1, node 9, m/s
         49   -2.293285462383E+000                                                     T               2         AD vind (axial) at blade 1, node 10, m/s
         50    4.008326086803E-001                                                     T               2         AD vind (tangential) at blade 1, node 10, m/s
         51   -2.574584455106E+000                                                     T               2         AD vind (axial) at blade 1, node 11, m/s
         52    3.795571951627E-001                                                     T               2         AD vind (tangential) at blade 1, node 11, m/s
         53   -2.774653539789E+000                                                     T               2         AD vind (axial) at blade 1, node 12, m/s
         54    3.537057053568E-001                                                     T               2         AD vind (tangential) at blade 1, node 12, m/s
         55   -2.629031662683E+000                                                     T               2         AD vind (axial) at blade 1, node 13, m/s
         56    3.124158356751E-001                                                     T               2         AD vind (tangential) at blade 1, node 13, m/s
         57   -2.741939178349E+000                                                     T               2         AD vind (axial) at blade 1, node 14, m/s
         58    2.913445010226E-001                                                     T               2         AD vind (tangential) at blade 1, node 14, m/s
         59   -2.901151609674E+000                                                     T               2         AD vind (axial) at blade 1, node 15, m/s
         60    2.748427738961E-001                                                     T               2         AD vind (tangential) at blade 1, node 15, m/s
         61   -3.157167796335E+000                                                     T               2         AD vind (axial) at blade 1, node 16, m/s
         62    2.660961466806E-001                                                     T               2         AD vind (tangential) at blade 1, node 16, m/s
         63   -3.471481636809E+000                                                     T               2         AD vind (axial) at blade 1, node 17, m/s
         64    2.631087007928E-001                                                     T               2         AD vind (tangential) at blade 1, node 17, m/s
         65   -3.619531421000E+000                                                     T               2         AD vind (axial) at blade 1, node 18, m/s
         66    2.592825365633E-001                                                     T               2         AD vind (tangential) at blade 1, node 18, m/s
         67   -7.913293112103E+000                                                     T               2         AD vind (axial) at blade 1, node 19, m/s
         68    0.000000000000E+000                                                     T               2         AD vind (tangential) at blade 1, node 19, m/s
         69   -7.544310955632E+000                                                     T               2         AD vind (axial) at blade 2, node 1, m/s
         70    0.000000000000E+000                                                     T               2         AD vind (tangential) at blade 2, node 1, m/s
         71    0.000000000000E+000                                                     T               2         AD vind (axial) at blade 2, node 2, m/s
         72    0.000000000000E+000                                                     T               2         AD vind (tangential) at blade 2, node 2, m/s
         73    0.000000000000E+000                                                     T               2         AD vind (axial) at blade 2, node 3, m/s
         74    0.000000000000E+000                                                     T               2         AD vind (tangential) at blade 2, node 3, m/s
         75    0.000000000000E+000                                                     T               2         AD vind (axial) at blade 2, node 4, m/s
         76    0.000000000000E+000                                                     T               2         AD vind (tangential) at blade 2, node 4, m/s
         77   -2.005866525938E+000                                                     T               2         AD vind (axial) at blade 2, node 5, m/s
         78    9.397916774765E-001                                                     T               2         AD vind (tangential) at blade 2, node 5, m/s
         79   -2.165364636275E+000                                                     T               2         AD vind (axial) at blade 2, node 6, m/s
         80    7.594783316460E-001                                                     T               2         AD vind (tangential) at blade 2, node 6, m/s
         81   -1.989430069517E+000                                                     T               2         AD vind (axial) at blade 2, node 7, m/s
         82    5.826272197816E-001                                                     T               2         AD vind (tangential) at blade 2, node 7, m/s
         83   -1.977926670439E+000                                                     T               2         AD vind (axial) at blade 2, node 8, m/s
         84    4.860287209236E-001                                                     T               2         AD vind (tangential) at blade 2, node 8, m/s
         85   -2.214441939647E+000                                                     T               2         AD vind (axial) at blade 2, node 9, m/s
         86    4.485439464880E-001                                                     T               2         AD vind (tangential) at blade 2, node 9, m/s
         87   -2.288538198998E+000                                                     T               2         AD vind (axial) at blade 2, node 10, m/s
         88    4.007817477359E-001                                                     T               2         AD vind (tangential) at blade 2, node 10, m/s
         89   -2.568909071245E+000                                                     T               2         AD vind (axial) at blade 2, node 11, m/s
         90    3.800166492153E-001                                                     T               2         AD vind (tangential) at blade 2, node 11, m/s
         91   -2.767380379606E+000                                                     T               2         AD vind (axial) at blade 2, node 12, m/s
         92    3.546060758165E-001                                                     T               2         AD vind (tangential) at blade 2, node 12, m/s
         93   -2.621996160498E+000                                                     T               2         AD vind (axial) at blade 2, node 13, m/s
         94    3.136140087719E-001                                                     T               2         AD vind (tangential) at blade 2, node 13, m/s
         95   -2.733967161182E+000                                                     T               2         AD vind (axial) at blade 2, node 14, m/s
         96    2.927999262567E-001                                                     T               2         AD vind (tangential) at blade 2, node 14, m/s
         97   -2.892788254630E+000                                                     T               2         AD vind (axial) at blade 2, node 15, m/s
         98    2.765234540203E-001                                                     T               2         AD vind (tangential) at blade 2, node 15, m/s
         99   -3.147915084181E+000                                                     T               2         AD vind (axial) at blade 2, node 16, m/s
        100    2.680005694185E-001                                                     T               2         AD vind (tangential) at blade 2, node 16, m/s
        101   -3.462902738198E+000                                                     T               2         AD vind (axial) at blade 2, node 17, m/s
        102    2.651103605165E-001                                                     T               2         AD vind (tangential) at blade 2, node 17, m/s
        103   -3.614044470251E+000                                                     T               2         AD vind (axial) at blade 2, node 18, m/s
        104    2.610225200623E-001                                                     T               2         AD vind (tangential) at blade 2, node 18, m/s
        105   -7.909845241844E+000                                                     T               2         AD vind (axial) at blade 2, node 19, m/s
        106    0.000000000000E+000                                                     T               2         AD vind (tangential) at blade 2, node 19, m/s
        107   -7.782694357384E+000                                                     T               2         AD vind (axial) at blade 3, node 1, m/s
        108    0.000000000000E+000                                                     T               2         AD vind (tangential) at blade 3, node 1, m/s
        109    0.000000000000E+000                                                     T               2         AD vind (axial) at blade 3, node 2, m/s
        110    0.000000000000E+000                                                     T               2         AD vind (tangential) at blade 3, node 2, m/s
        111    0.000000000000E+000                                                     T               2         AD vind (axial) at blade 3, node 3, m/s
        112    0.000000000000E+000                                                     T               2         AD vind (tangential) at blade 3, node 3, m/s
        113    0.000000000000E+000                                                     T               2         AD vind (axial) at blade 3, node 4, m/s
        114    0.000000000000E+000                                                     T               2         AD vind (tangential) at blade 3, node 4, m/s
        115   -2.014819946445E+000                                                     T               2         AD vind (axial) at blade 3, node 5, m/s
        116    9.496997848598E-001                                                     T               2         AD vind (tangential) at blade 3, node 5, m/s
        117   -2.176636505658E+000                                                     T               2         AD vind (axial) at blade 3, node 6, m/s
        118    7.649537682518E-001                                                     T               2         AD vind (tangential) at blade 3, node 6, m/s
        119   -1.996917278002E+000                                                     T               2         AD vind (axial) at blade 3, node 7, m/s
        120    5.853040936165E-001                                                     T               2         AD vind (tangential) at blade 3, node 7, m/s
        121   -1.983100982375E+000                                                     T               2         AD vind (axial) at blade 3, node 8, m/s
        122    4.873068426568E-001                                                     T               2         AD vind (tangential) at blade 3, node 8, m/s
        123   -2.219262195210E+000                                                     T               2         AD vind (axial) at blade 3, node 9, m/s
        124    4.491349161916E-001                                                     T               2         AD vind (tangential) at blade 3, node 9, m/s
        125   -2.293522917120E+000                                                     T               2         AD vind (axial) at blade 3, node 10, m/s
        126    4.008860416029E-001                                                     T               2         AD vind (tangential) at blade 3, node 10, m/s
        127   -2.576480648300E+000                                                     T               2         AD vind (axial) at blade 3, node 11, m/s
        128    3.798566349421E-001                                                     T               2         AD vind (tangential) at blade 3, node 11, m/s
        129   -2.778942594367E+000                                                     T               2         AD vind (axial) at blade 3, node 12, m/s
        130    3.542411380930E-001                                                     T               2         AD vind (tangential) at blade 3, node 12, m/s
        131   -2.635822308462E+000                                                     T               2         AD vind (axial) at blade 3, node 13, m/s
        132    3.131848047860E-001                                                     T               2         AD vind (tangential) at blade 3, node 13, m/s
        133   -2.752529614098E+000                                                     T               2         AD vind (axial) at blade 3, node 14, m/s
        134    2.922979292804E-001                                                     T               2         AD vind (tangential) at blade 3, node 14, m/s
        135   -2.916723312863E+000                                                     T               2         AD vind (axial) at blade 3, node 15, m/s
        136    2.759032368378E-001                                                     T               2         AD vind (tangential) at blade 3, node 15, m/s
        137   -3.178231925159E+000                                                     T               2         AD vind (axial) at blade 3, node 16, m/s
        138    2.671062735608E-001                                                     T               2         AD vind (tangential) at blade 3, node 16, m/s
        139   -3.493613310598E+000                                                     T               2         AD vind (axial) at blade 3, node 17, m/s
        140    2.640889008177E-001                                                     T               2         AD vind (tangential) at blade 3, node 17, m/s
        141   -3.640023946003E+000                                                     T               2         AD vind (axial) at blade 3, node 18, m/s
        142    2.601300541166E-001                                                     T               2         AD vind (tangential) at blade 3, node 18, m/s
        143   -7.920543126885E+000                                                     T               2         AD vind (axial) at blade 3, node 19, m/s
        144    0.000000000000E+000                                                     T               2         AD vind (tangential) at blade 3, node 19, m/s
        145   -3.135323635024E+000                                                     T               2         AD First time derivative of vind (axial) at blade 1, node 1, m/s/s
        146    0.000000000000E+000                                                     T               2         AD First time derivative of vind (tangential) at blade 1, node 1, m/s/s
        147    0.000000000000E+000                                                     T               2         AD First time derivative of vind (axial) at blade 1, node 2, m/s/s
        148    0.000000000000E+000                                                     T               2         AD First time derivative of vind (tangential) at blade 1, node 2, m/s/s
        149    0.000000000000E+000                                                     T               2         AD First time derivative of vind (axial) at blade 1, node 3, m/s/s
        150    0.000000000000E+000                                                     T               2         AD First time derivative of vind (tangential) at blade 1, node 3, m/s/s
        151    0.000000000000E+000                                                     T               2         AD First time derivative of vind (axial) at blade 1, node 4, m/s/s
        152    0.000000000000E+000                                                     T               2         AD First time derivative of vind (tangential) at blade 1, node 4, m/s/s
        153   -8.085743388957E-001                                                     T               2         AD First time derivative of vind (axial) at blade 1, node 5, m/s/s
        154    3.811312739263E-001                                                     T               2         AD First time derivative of vind (tangential) at blade 1, node 5, m/s/s
        155   -8.723615084647E-001                                                     T               2         AD First time derivative of vind (axial) at blade 1, node 6, m/s/s
        156    3.065754571569E-001                                                     T               2         AD First time derivative of vind (tangential) at blade 1, node 6, m/s/s
        157   -7.997235885081E-001                                                     T               2         AD First time derivative of vind (axial) at blade 1, node 7, m/s/s
        158    2.343818455487E-001                                                     T               2         AD First time derivative of vind (tangential) at blade 1, node 7, m/s/s
        159   -7.937181601272E-001                                                     T               2         AD First time derivative of vind (axial) at blade 1, node 8, m/s/s
        160    1.950123289409E-001                                                     T               2         AD First time derivative of vind (tangential) at blade 1, node 8, m/s/s
        161   -8.878782167235E-001                                                     T               2         AD First time derivative of vind (axial) at blade 1, node 9, m/s/s
        162    1.796531921575E-001                                                     T               2         AD First time derivative of vind (tangential) at blade 1, node 9, m/s/s
        163   -9.171560525413E-001                                                     T               2         AD First time derivative of vind (axial) at blade 1, node 10, m/s/s
        164    1.602751909377E-001                                                     T               2         AD First time derivative of vind (tangential) at blade 1, node 10, m/s/s
        165   -1.029889897761E+000                                                     T               2         AD First time derivative of vind (axial) at blade 1, node 11, m/s/s
        166    1.518074531686E-001                                                     T               2         AD First time derivative of vind (tangential) at blade 1, node 11, m/s/s
        167   -1.110197793464E+000                                                     T               2         AD First time derivative of vind (axial) at blade 1, node 12, m/s/s
        168    1.415072987468E-001                                                     T               2         AD First time derivative of vind (tangential) at blade 1, node 12, m/s/s
        169   -1.052282108339E+000                                                     T               2         AD First time derivative of vind (axial) at blade 1, node 13, m/s/s
        170    1.250363550165E-001                                                     T               2         AD First time derivative of vind (tangential) at blade 1, node 13, m/s/s