
Linearized model: Predictions were generated on 13-Sep-2024 at 15:25:24 using OpenFAST, compiled on Sep 13 2024 at 13:41:05 as a 64-bit application using double precision at commit HEAD-HASH-NOTFOUND
 linked with  NWTC Subroutine Library; ElastoDyn; InflowWind; AeroDyn; ServoDyn

Description from the FAST input file: NREL 5.0 MW Baseline Wind Turbine (Onshore), Linearization with AeroDyn + ED

Simulation information:
   Simulation time:                   241.0100 s
   Rotor Speed:                         0.9987 rad/s
   Azimuth:                             4.1940 rad
   Wind Speed:                          8.0000 m/s
   Number of continuous states:       258
   Number of discrete states:           0
   Number of constraint states:         0
   Number of inputs:                   69
   Number of outputs:                   5
   Jacobians included in this file?    No

Order of continuous states:
   Row/Column Operating Point                                                   Rotating Frame? Derivative Order Description
   ---------- ---------------                                                   --------------- ---------------- -----------
          1    2.080565984363E-001                                                     F               2         ED 1st tower fore-aft bending mode DOF (internal DOF index = DOF_TFA1), m
          2    2.122986541134E-002                                                     F               2         ED 1st tower side-to-side bending mode DOF (internal DOF index = DOF_TSS1), m
          3   -7.383366572190E-005                                                     F               2         ED 2nd tower fore-aft bending mode DOF (internal DOF index = DOF_TFA2), m
          4    1.408278866099E-004                                                     F               2         ED 2nd tower side-to-side bending mode DOF (internal DOF index = DOF_TSS2), m
          5    2.621025532092E+000                                                     F               2         ED Variable speed generator DOF (internal DOF index = DOF_GeAz), rad
          6    2.176989666971E-003                                                     F               2         ED Drivetrain rotational-flexibility DOF (internal DOF index = DOF_DrTr), rad
          7    3.050149741734E+000                                                     T               2         ED 1st flapwise bending-mode DOF of blade 1 (internal DOF index = DOF_BF(1,1)), m
          8    3.172500359474E+000                                                     T               2         ED 1st flapwise bending-mode DOF of blade 2 (internal DOF index = DOF_BF(2,1)), m
          9    3.349822199490E+000                                                     T               2         ED 1st flapwise bending-mode DOF of blade 3 (internal DOF index = DOF_BF(3,1)), m
         10    5.026110577962E-001                                                     T               2         ED 1st edgewise bending-mode DOF of blade 1 (internal DOF index = DOF_BE(1,1)), m
         11    8.382134915680E-002                                                     T               2         ED 1st edgewise bending-mode DOF of blade 2 (internal DOF index = DOF_BE(2,1)), m
         12   -3.192197275778E-001                                                     T               2         ED 1st edgewise bending-mode DOF of blade 3 (internal DOF index = DOF_BE(3,1)), m
         13    8.600404280246E-002                                                     T               2         ED 2nd flapwise bending-mode DOF of blade 1 (internal DOF index = DOF_BF(1,2)), m
         14    5.621173654740E-002                                                     T               2         ED 2nd flapwise bending-mode DOF of blade 2 (internal DOF index = DOF_BF(2,2)), m
         15   -9.643394357133E-003                                                     T               2         ED 2nd flapwise bending-mode DOF of blade 3 (internal DOF index = DOF_BF(3,2)), m
         16    2.336815630677E-004                                                     F               2         ED First time derivative of 1st tower fore-aft bending mode DOF (internal DOF index = DOF_TFA1), m/s
         17   -4.058615070050E-004                                                     F               2         ED First time derivative of 1st tower side-to-side bending mode DOF (internal DOF index = DOF_TSS1), m/s
         18   -1.348123548954E-005                                                     F               2         ED First time derivative of 2nd tower fore-aft bending mode DOF (internal DOF index = DOF_TFA2), m/s
         19   -4.124463937989E-005                                                     F               2         ED First time derivative of 2nd tower side-to-side bending mode DOF (internal DOF index = DOF_TSS2), m/s
         20    9.988220729445E-001                                                     F               2         ED First time derivative of Variable speed generator DOF (internal DOF index = DOF_GeAz), rad/s
         21   -1.385397747235E-004                                                     F               2         ED First time derivative of Drivetrain rotational-flexibility DOF (internal DOF index = DOF_DrTr), rad/s
         22   -1.627740221318E-001                                                     T               2         ED First time derivative of 1st flapwise bending-mode DOF of blade 1 (internal DOF index = DOF_BF(1,1)), m/s
         23    2.138547744689E-001                                                     T               2         ED First time derivative of 1st flapwise bending-mode DOF of blade 2 (internal DOF index = DOF_BF(2,1)), m/s
         24   -9.521310257290E-002                                                     T               2         ED First time derivative of 1st flapwise bending-mode DOF of blade 3 (internal DOF index = DOF_BF(3,1)), m/s
         25    2.926539133542E-001                                                     T               2         ED First time derivative of 1st edgewise bending-mode DOF of blade 1 (internal DOF index = DOF_BE(1,1)), m/s
         26   -5.561676325059E-001                                                     T               2         ED First time derivative of 1st edgewise bending-mode DOF of blade 2 (internal DOF index = DOF_BE(2,1)), m/s
         27    2.840083912183E-001                                                     T               2         ED First time derivative of 1st edgewise bending-mode DOF of blade 3 (internal DOF index = DOF_BE(3,1)), m/s
         28    9.465231062541E-002                                                     T               2         ED First time derivative of 2nd flapwise bending-mode DOF of blade 1 (internal DOF index = DOF_BF(1,2)), m/s
         29   -6.889482402162E-002                                                     T               2         ED First time derivative of 2nd flapwise bending-mode DOF of blade 2 (internal DOF index = DOF_BF(2,2)), m/s
         30    1.979213135163E-002                                                     T               2         ED First time derivative of 2nd flapwise bending-mode DOF of blade 3 (internal DOF index = DOF_BF(3,2)), m/s
         31   -7.544389212061E+000                                                     T               2         AD vind (axial) at blade 1, node 1, m/s
         32    0.000000000000E+000                                                     T               2         AD vind (tangential) at blade 1, node 1, m/s
         33    0.000000000000E+000                                                     T               2         AD vind (axial) at blade 1, node 2, m/s
         34    0.000000000000E+000                                                     T               2         AD vind (tangential) at blade 1, node 2, m/s
         35    0.000000000000E+000                                                     T               2         AD vind (axial) at blade 1, node 3, m/s
         36    0.000000000000E+000                                                     T               2         AD vind (tangential) at blade 1, node 3, m/s
         37    0.000000000000E+000                                                     T               2         AD vind (axial) at blade 1, node 4, m/s
         38    0.000000000000E+000                                                     T               2         AD vind (tangential) at blade 1, node 4, m/s
         39   -2.002641791508E+000                                                     T               2         AD vind (axial) at blade 1, node 5, m/s
         40    9.401880136456E-001                                                     T               2         AD vind (tangential) at blade 1, node 5, m/s
         41   -2.165048099365E+000                                                     T               2         AD vind (axial) at blade 1, node 6, m/s
         42    7.605449587446E-001                                                     T               2         AD vind (tangential) at blade 1, node 6, m/s
         43   -1.989472127157E+000                                                     T               2         AD vind (axial) at blade 1, node 7, m/s
         44    5.835287906291E-001                                                     T               2         AD vind (tangential) at blade 1, node 7, m/s
         45   -1.977771540467E+000                                                     T               2         AD vind (axial) at blade 1, node 8, m/s
         46    4.867577259684E-001                                                     T               2         AD vind (tangential) at blade 1, node 8, m/s
         47   -2.213171909464E+000                                                     T               2         AD vind (axial) at blade 1, node 9, m/s
         48    4.490842427865E-001                                                     T               2         AD vind (tangential) at blade 1, node 9, m/s
         49   -2.286727411054E+000                                                     T               2         AD vind (axial) at blade 1, node 10, m/s
         50    4.012146490262E-001                                                     T               2         AD vind (tangential) at blade 1, node 10, m/s
         51   -2.565551720243E+000                                                     T               2         AD vind (axial) at blade 1, node 11, m/s
         52    3.803377089242E-001                                                     T               2         AD vind (tangential) at blade 1, node 11, m/s
         53   -2.762699529649E+000                                                     T               2         AD vind (axial) at blade 1, node 12, m/s
         54    3.548511051383E-001                                                     T               2         AD vind (tangential) at blade 1, node 12, m/s
         55   -2.617383454324E+000                                                     T               2         AD vind (axial) at blade 1, node 13, m/s
         56    3.137816358565E-001                                                     T               2         AD vind (tangential) at blade 1, node 13, m/s
         57   -2.728712956124E+000                                                     T               2         AD vind (axial) at blade 1, node 14, m/s
         58    2.929175963312E-001                                                     T               2         AD vind (tangential) at blade 1, node 14, m/s
         59   -2.887024062995E+000                                                     T               2         AD vind (axial) at blade 1, node 15, m/s
         60    2.766048094796E-001                                                     T               2         AD vind (tangential) at blade 1, node 15, m/s
         61   -3.141535013568E+000                                                     T               2         AD vind (axial) at blade 1, node 16, m/s
         62    2.680713300108E-001                                                     T               2         AD vind (tangential) at blade 1, node 16, m/s
         63   -3.456568472237E+000                                                     T               2         AD vind (axial) at blade 1, node 17, m/s
         64    2.651710700904E-001                                                     T               2         AD vind (tangential) at blade 1, node 17, m/s
         65   -3.608336638660E+000                                                     T               2         AD vind (axial) at blade 1, node 18, m/s
         66    2.610488734747E-001                                                     T               2         AD vind (tangential) at blade 1, node 18, m/s
         67   -7.904054547376E+000                                                     T               2         AD vind (axial) at blade 1, node 19, m/s
         68    0.000000000000E+000                                                     T               2         AD vind (tangential) at blade 1, node 19, m/s
         69   -7.783099371810E+000                                                     T               2         AD vind (axial) at blade 2, node 1, m/s
         70    0.000000000000E+000                                                     T               2         AD vind (tangential) at blade 2, node 1, m/s
         71    0.000000000000E+000                                                     T               2         AD vind (axial) at blade 2, node 2, m/s
         72    0.000000000000E+000                                                     T               2         AD vind (tangential) at blade 2, node 2, m/s
         73    0.000000000000E+000                                                     T               2         AD vind (axial) at blade 2, node 3, m/s
         74    0.000000000000E+000                                                     T               2         AD vind (tangential) at blade 2, node 3, m/s
         75    0.000000000000E+000                                                     T               2         AD vind (axial) at blade 2, node 4, m/s
         76    0.000000000000E+000                                                     T               2         AD vind (tangential) at blade 2, node 4, m/s
         77   -2.011372660871E+000                                                     T               2         AD vind (axial) at blade 2, node 5, m/s
         78    9.500370112848E-001                                                     T               2         AD vind (tangential) at blade 2, node 5, m/s
         79   -2.176310715855E+000                                                     T               2         AD vind (axial) at blade 2, node 6, m/s
         80    7.660268611720E-001                                                     T               2         AD vind (tangential) at blade 2, node 6, m/s
         81   -1.996939440496E+000                                                     T               2         AD vind (axial) at blade 2, node 7, m/s
         82    5.862115657689E-001                                                     T               2         AD vind (tangential) at blade 2, node 7, m/s
         83   -1.982963439382E+000                                                     T               2         AD vind (axial) at blade 2, node 8, m/s
         84    4.880500429064E-001                                                     T               2         AD vind (tangential) at blade 2, node 8, m/s
         85   -2.218015378168E+000                                                     T               2         AD vind (axial) at blade 2, node 9, m/s
         86    4.496942563766E-001                                                     T               2         AD vind (tangential) at blade 2, node 9, m/s
         87   -2.291771756277E+000                                                     T               2         AD vind (axial) at blade 2, node 10, m/s
         88    4.013473915275E-001                                                     T               2         AD vind (tangential) at blade 2, node 10, m/s
         89   -2.573169625652E+000                                                     T               2         AD vind (axial) at blade 2, node 11, m/s
         90    3.802161923722E-001                                                     T               2         AD vind (tangential) at blade 2, node 11, m/s
         91   -2.774355144294E+000                                                     T               2         AD vind (axial) at blade 2, node 12, m/s
         92    3.545460578624E-001                                                     T               2         AD vind (tangential) at blade 2, node 12, m/s
         93   -2.631136941714E+000                                                     T               2         AD vind (axial) at blade 2, node 13, m/s
         94    3.134175657960E-001                                                     T               2         AD vind (tangential) at blade 2, node 13, m/s
         95   -2.747016893030E+000                                                     T               2         AD vind (axial) at blade 2, node 14, m/s
         96    2.925048675908E-001                                                     T               2         AD vind (tangential) at blade 2, node 14, m/s
         97   -2.910400973523E+000                                                     T               2         AD vind (axial) at blade 2, node 15, m/s
         98    2.761116591627E-001                                                     T               2         AD vind (tangential) at blade 2, node 15, m/s
         99   -3.171209237871E+000                                                     T               2         AD vind (axial) at blade 2, node 16, m/s
        100    2.673557662750E-001                                                     T               2         AD vind (tangential) at blade 2, node 16, m/s
        101   -3.487546299048E+000                                                     T               2         AD vind (axial) at blade 2, node 17, m/s
        102    2.643500470367E-001                                                     T               2         AD vind (tangential) at blade 2, node 17, m/s
        103   -3.635671499166E+000                                                     T               2         AD vind (axial) at blade 2, node 18, m/s
        104    2.604043848575E-001                                                     T               2         AD vind (tangential) at blade 2, node 18, m/s
        105   -7.921642396302E+000                                                     T               2         AD vind (axial) at blade 2, node 19, m/s
        106    0.000000000000E+000                                                     T               2         AD vind (tangential) at blade 2, node 19, m/s
        107   -7.867379008289E+000                                                     T               2         AD vind (axial) at blade 3, node 1, m/s
        108    0.000000000000E+000                                                     T               2         AD vind (tangential) at blade 3, node 1, m/s
        109    0.000000000000E+000                                                     T               2         AD vind (axial) at blade 3, node 2, m/s
        110    0.000000000000E+000                                                     T               2         AD vind (tangential) at blade 3, node 2, m/s
        111    0.000000000000E+000                                                     T               2         AD vind (axial) at blade 3, node 3, m/s
        112    0.000000000000E+000                                                     T               2         AD vind (tangential) at blade 3, node 3, m/s
        113    0.000000000000E+000                                                     T               2         AD vind (axial) at blade 3, node 4, m/s
        114    0.000000000000E+000                                                     T               2         AD vind (tangential) at blade 3, node 4, m/s
        115   -2.020248772500E+000                                                     T               2         AD vind (axial) at blade 3, node 5, m/s
        116    9.552440937200E-001                                                     T               2         AD vind (tangential) at blade 3, node 5, m/s
        117   -2.183350696884E+000                                                     T               2         AD vind (axial) at blade 3, node 6, m/s
        118    7.689017096347E-001                                                     T               2         AD vind (tangential) at blade 3, node 6, m/s
        119   -2.001251767661E+000                                                     T               2         AD vind (axial) at blade 3, node 7, m/s
        120    5.876477802200E-001                                                     T               2         AD vind (tangential) at blade 3, node 7, m/s
        121   -1.985477329332E+000                                                     T               2         AD vind (axial) at blade 3, node 8, m/s
        122    4.887334761717E-001                                                     T               2         AD vind (tangential) at blade 3, node 8, m/s
        123   -2.219326459914E+000                                                     T               2         AD vind (axial) at blade 3, node 9, m/s
        124    4.499657106511E-001                                                     T               2         AD vind (tangential) at blade 3, node 9, m/s
        125   -2.291575442341E+000                                                     T               2         AD vind (axial) at blade 3, node 10, m/s
        126    4.012762101886E-001                                                     T               2         AD vind (tangential) at blade 3, node 10, m/s
        127   -2.571367448350E+000                                                     T               2         AD vind (axial) at blade 3, node 11, m/s
        128    3.798959762551E-001                                                     T               2         AD vind (tangential) at blade 3, node 11, m/s
        129   -2.770255854075E+000                                                     T               2         AD vind (axial) at blade 3, node 12, m/s
        130    3.539888359160E-001                                                     T               2         AD vind (tangential) at blade 3, node 12, m/s
        131   -2.624543650538E+000                                                     T               2         AD vind (axial) at blade 3, node 13, m/s
        132    3.126253102904E-001                                                     T               2         AD vind (tangential) at blade 3, node 13, m/s
        133   -2.736709637812E+000                                                     T               2         AD vind (axial) at blade 3, node 14, m/s
        134    2.915276393336E-001                                                     T               2         AD vind (tangential) at blade 3, node 14, m/s
        135   -2.895231178766E+000                                                     T               2         AD vind (axial) at blade 3, node 15, m/s
        136    2.750263031197E-001                                                     T               2         AD vind (tangential) at blade 3, node 15, m/s
        137   -3.150660474926E+000                                                     T               2         AD vind (axial) at blade 3, node 16, m/s
        138    2.663177751204E-001                                                     T               2         AD vind (tangential) at blade 3, node 16, m/s
        139   -3.465933403556E+000                                                     T               2         AD vind (axial) at blade 3, node 17, m/s
        140    2.633372391019E-001                                                     T               2         AD vind (tangential) at blade 3, node 17, m/s
        141   -3.615594938583E+000                                                     T               2         AD vind (axial) at blade 3, node 18, m/s
        142    2.595163670953E-001                                                     T               2         AD vind (tangential) at blade 3, node 18, m/s
        143   -7.913957209999E+000                                                     T               2         AD vind (axial) at blade 3, node 19, m/s
        144    0.000000000000E+000                                                     T               2         AD vind (tangential) at blade 3, node 19, m/s
        145   -3.040011529790E+000                                                     T               2         AD First time derivative of vind (axial) at blade 1, node 1, m/s/s
        146    0.000000000000E+000                                                     T               2         AD First time derivative of vind (tangential) at blade 1, node 1, m/s/s
        147    0.000000000000E+000                                                     T               2         AD First time derivative of vind (axial) at blade 1, node 2, m/s/s
        148    0.000000000000E+000                                                     T               2         AD First time derivative of vind (tangential) at blade 1, node 2, m/s/s
        149    0.000000000000E+000                                                     T               2         AD First time derivative of vind (axial) at blade 1, node 3, m/s/s
        150    0.000000000000E+000                                                     T               2         AD First time derivative of vind (tangential) at blade 1, node 3, m/s/s
        151    0.000000000000E+000                                                     T               2         AD First time derivative of vind (axial) at blade 1, node 4, m/s/s
        152    0.000000000000E+000                                                     T               2         AD First time derivative of vind (tangential) at blade 1, node 4, m/s/s
        153   -8.030941676868E-001                                                     T               2         AD First time derivative of vind (axial) at blade 1, node 5, m/s/s
        154    3.767249226833E-001                                                     T               2         AD First time derivative of vind (tangential) at blade 1, node 5, m/s/s
        155   -8.669449873290E-001                                                     T               2         AD First time derivative of vind (axial) at blade 1, node 6, m/s/s
        156    3.043590251807E-001                                                     T               2         AD First time derivative of vind (tangential) at blade 1, node 6, m/s/s
        157   -7.963006548474E-001                                                     T               2         AD First time derivative of vind (axial) at blade 1, node 7, m/s/s
        158    2.334302361197E-001                                                     T               2         AD First time derivative of vind (tangential) at blade 1, node 7, m/s/s
        159   -7.914456766818E-001                                                     T               2         AD First time derivative of vind (axial) at blade 1, node 8, m/s/s
        160    1.946656980946E-001                                                     T               2         AD First time derivative of vind (tangential) at blade 1, node 8, m/s/s
        161   -8.856852703850E-001                                                     T               2         AD First time derivative of vind (axial) at blade 1, node 9, m/s/s
        162    1.795744407531E-001                                                     T               2         AD First time derivative of vind (tangential) at blade 1, node 9, m/s/s
        163   -9.151172879824E-001                                                     T               2         AD First time derivative of vind (axial) at blade 1, node 10, m/s/s
        164    1.603962654548E-001                                                     T               2         AD First time derivative of vind (tangential) at blade 1, node 10, m/s/s
        165   -1.026962281222E+000                                                     T               2         AD First time derivative of vind (axial) at blade 1, node 11, m/s/s
        166    1.520281574115E-001                                                     T               2         AD First time derivative of vind (tangential) at blade 1, node 11, m/s/s
        167   -1.106197871371E+000                                                     T               2         AD First time derivative of vind (axial) at blade 1, node 12, m/s/s
        168    1.418134035303E-001                                                     T               2         AD First time derivative of vind (tangential) at blade 1, node 12, m/s/s
        169   -1.048147529038E+000                                                     T               2         AD First time derivative of vind (axial) at blade 1, node 13, m/s/s
        170    1.253789384334E-001                                                     T               2         AD First time derivative of vind (tangential) at blade 1, node 13, m/s/s