
Linearized model: Predictions were generated on 11-Mar-2026 at 17:04:04 using OpenFAST, compiled on Mar 11 2026 at 16:48:05 as a 64-bit application using double precision at commit -128-NOTFOUND
 linked with  NWTC Subroutine Library; ElastoDyn; InflowWind; AeroDyn; ServoDyn

Description from the FAST input file: NREL 5.0 MW Baseline Wind Turbine (Onshore), Linearization with AeroDyn + ED

Simulation information:
   Simulation time:                    58.8100 s
   Rotor Speed:                         1.0002 rad/s
   Azimuth:                             4.1973 rad
   Wind Speed:                          8.0000 m/s
   Number of continuous states:       258
   Number of discrete states:           0
   Number of constraint states:         0
   Number of inputs:                   72
   Number of outputs:                   5
   Jacobians included in this file?    No

Order of continuous states:
   Row/Column Operating Point                                                   Rotating Frame? Derivative Order Description
   ---------- ---------------                                                   --------------- ---------------- -----------
          1    2.082533124567E-001                                                     F               2         ED 1st tower fore-aft bending mode DOF (internal DOF index = DOF_TFA1), m
          2    2.475730060499E-002                                                     F               2         ED 1st tower side-to-side bending mode DOF (internal DOF index = DOF_TSS1), m
          3   -7.236631311279E-005                                                     F               2         ED 2nd tower fore-aft bending mode DOF (internal DOF index = DOF_TFA2), m
          4    1.396303626382E-004                                                     F               2         ED 2nd tower side-to-side bending mode DOF (internal DOF index = DOF_TSS2), m
          5    2.624361523895E+000                                                     F               2         ED Variable speed generator DOF (internal DOF index = DOF_GeAz), rad
          6    2.182056696585E-003                                                     F               2         ED Drivetrain rotational-flexibility DOF (internal DOF index = DOF_DrTr), rad
          7    3.047825632584E+000                                                     T               2         ED 1st flapwise bending-mode DOF of blade 1 (internal DOF index = DOF_BF(1,1)), m
          8    3.177153049763E+000                                                     T               2         ED 1st flapwise bending-mode DOF of blade 2 (internal DOF index = DOF_BF(2,1)), m
          9    3.351561629672E+000                                                     T               2         ED 1st flapwise bending-mode DOF of blade 3 (internal DOF index = DOF_BF(3,1)), m
         10    4.967529780049E-001                                                     T               2         ED 1st edgewise bending-mode DOF of blade 1 (internal DOF index = DOF_BE(1,1)), m
         11    8.073458681351E-002                                                     T               2         ED 1st edgewise bending-mode DOF of blade 2 (internal DOF index = DOF_BE(2,1)), m
         12   -3.099452255452E-001                                                     T               2         ED 1st edgewise bending-mode DOF of blade 3 (internal DOF index = DOF_BE(3,1)), m
         13    8.546330439334E-002                                                     T               2         ED 2nd flapwise bending-mode DOF of blade 1 (internal DOF index = DOF_BF(1,2)), m
         14    5.544849714173E-002                                                     T               2         ED 2nd flapwise bending-mode DOF of blade 2 (internal DOF index = DOF_BF(2,2)), m
         15   -8.443525316857E-003                                                     T               2         ED 2nd flapwise bending-mode DOF of blade 3 (internal DOF index = DOF_BF(3,2)), m
         16    1.341275627968E-004                                                     F               2         ED First time derivative of 1st tower fore-aft bending mode DOF (internal DOF index = DOF_TFA1), m/s
         17    4.279461730980E-003                                                     F               2         ED First time derivative of 1st tower side-to-side bending mode DOF (internal DOF index = DOF_TSS1), m/s
         18   -2.700956648082E-005                                                     F               2         ED First time derivative of 2nd tower fore-aft bending mode DOF (internal DOF index = DOF_TFA2), m/s
         19   -4.366666020597E-005                                                     F               2         ED First time derivative of 2nd tower side-to-side bending mode DOF (internal DOF index = DOF_TSS2), m/s
         20    1.000274799287E+000                                                     F               2         ED First time derivative of Variable speed generator DOF (internal DOF index = DOF_GeAz), rad/s
         21   -9.794705696391E-005                                                     F               2         ED First time derivative of Drivetrain rotational-flexibility DOF (internal DOF index = DOF_DrTr), rad/s
         22   -1.351877478422E-001                                                     T               2         ED First time derivative of 1st flapwise bending-mode DOF of blade 1 (internal DOF index = DOF_BF(1,1)), m/s
         23    2.079930447086E-001                                                     T               2         ED First time derivative of 1st flapwise bending-mode DOF of blade 2 (internal DOF index = DOF_BF(2,1)), m/s
         24   -1.093739547100E-001                                                     T               2         ED First time derivative of 1st flapwise bending-mode DOF of blade 3 (internal DOF index = DOF_BF(3,1)), m/s
         25    2.358430871502E-001                                                     T               2         ED First time derivative of 1st edgewise bending-mode DOF of blade 1 (internal DOF index = DOF_BE(1,1)), m/s
         26   -5.022520967335E-001                                                     T               2         ED First time derivative of 1st edgewise bending-mode DOF of blade 2 (internal DOF index = DOF_BE(2,1)), m/s
         27    2.797213217800E-001                                                     T               2         ED First time derivative of 1st edgewise bending-mode DOF of blade 3 (internal DOF index = DOF_BE(3,1)), m/s
         28    8.742418883030E-002                                                     T               2         ED First time derivative of 2nd flapwise bending-mode DOF of blade 1 (internal DOF index = DOF_BF(1,2)), m/s
         29   -6.472541494087E-002                                                     T               2         ED First time derivative of 2nd flapwise bending-mode DOF of blade 2 (internal DOF index = DOF_BF(2,2)), m/s
         30    2.173134593838E-002                                                     T               2         ED First time derivative of 2nd flapwise bending-mode DOF of blade 3 (internal DOF index = DOF_BF(3,2)), m/s
         31   -7.545081495507E+000                                                     T               2         AD vind (axial) at blade 1, node 1, m/s
         32    0.000000000000E+000                                                     T               2         AD vind (tangential) at blade 1, node 1, m/s
         33    0.000000000000E+000                                                     T               2         AD vind (axial) at blade 1, node 2, m/s
         34    0.000000000000E+000                                                     T               2         AD vind (tangential) at blade 1, node 2, m/s
         35    0.000000000000E+000                                                     T               2         AD vind (axial) at blade 1, node 3, m/s
         36    0.000000000000E+000                                                     T               2         AD vind (tangential) at blade 1, node 3, m/s
         37    0.000000000000E+000                                                     T               2         AD vind (axial) at blade 1, node 4, m/s
         38    0.000000000000E+000                                                     T               2         AD vind (tangential) at blade 1, node 4, m/s
         39   -2.006257754974E+000                                                     T               2         AD vind (axial) at blade 1, node 5, m/s
         40    9.398682636586E-001                                                     T               2         AD vind (tangential) at blade 1, node 5, m/s
         41   -2.165549570563E+000                                                     T               2         AD vind (axial) at blade 1, node 6, m/s
         42    7.594411632513E-001                                                     T               2         AD vind (tangential) at blade 1, node 6, m/s
         43   -1.989546978075E+000                                                     T               2         AD vind (axial) at blade 1, node 7, m/s
         44    5.825667675078E-001                                                     T               2         AD vind (tangential) at blade 1, node 7, m/s
         45   -1.978041412408E+000                                                     T               2         AD vind (axial) at blade 1, node 8, m/s
         46    4.859685690119E-001                                                     T               2         AD vind (tangential) at blade 1, node 8, m/s
         47   -2.214691083703E+000                                                     T               2         AD vind (axial) at blade 1, node 9, m/s
         48    4.484992384266E-001                                                     T               2         AD vind (tangential) at blade 1, node 9, m/s
         49   -2.288845940236E+000                                                     T               2         AD vind (axial) at blade 1, node 10, m/s
         50    4.007459119400E-001                                                     T               2         AD vind (tangential) at blade 1, node 10, m/s
         51   -2.569410715978E+000                                                     T               2         AD vind (axial) at blade 1, node 11, m/s
         52    3.799923950135E-001                                                     T               2         AD vind (tangential) at blade 1, node 11, m/s
         53   -2.767981396765E+000                                                     T               2         AD vind (axial) at blade 1, node 12, m/s
         54    3.545832085706E-001                                                     T               2         AD vind (tangential) at blade 1, node 12, m/s
         55   -2.622659174206E+000                                                     T               2         AD vind (axial) at blade 1, node 13, m/s
         56    3.136008546889E-001                                                     T               2         AD vind (tangential) at blade 1, node 13, m/s
         57   -2.734734406748E+000                                                     T               2         AD vind (axial) at blade 1, node 14, m/s
         58    2.927869071832E-001                                                     T               2         AD vind (tangential) at blade 1, node 14, m/s
         59   -2.893636569316E+000                                                     T               2         AD vind (axial) at blade 1, node 15, m/s
         60    2.765105785657E-001                                                     T               2         AD vind (tangential) at blade 1, node 15, m/s
         61   -3.148714438731E+000                                                     T               2         AD vind (axial) at blade 1, node 16, m/s
         62    2.679888229385E-001                                                     T               2         AD vind (tangential) at blade 1, node 16, m/s
         63   -3.463508738285E+000                                                     T               2         AD vind (axial) at blade 1, node 17, m/s
         64    2.651132320616E-001                                                     T               2         AD vind (tangential) at blade 1, node 17, m/s
         65   -3.614457162479E+000                                                     T               2         AD vind (axial) at blade 1, node 18, m/s
         66    2.610479265786E-001                                                     T               2         AD vind (tangential) at blade 1, node 18, m/s
         67   -7.910820644567E+000                                                     T               2         AD vind (axial) at blade 1, node 19, m/s
         68    0.000000000000E+000                                                     T               2         AD vind (tangential) at blade 1, node 19, m/s
         69   -7.783165094561E+000                                                     T               2         AD vind (axial) at blade 2, node 1, m/s
         70    0.000000000000E+000                                                     T               2         AD vind (tangential) at blade 2, node 1, m/s
         71    0.000000000000E+000                                                     T               2         AD vind (axial) at blade 2, node 2, m/s
         72    0.000000000000E+000                                                     T               2         AD vind (tangential) at blade 2, node 2, m/s
         73    0.000000000000E+000                                                     T               2         AD vind (axial) at blade 2, node 3, m/s
         74    0.000000000000E+000                                                     T               2         AD vind (tangential) at blade 2, node 3, m/s
         75    0.000000000000E+000                                                     T               2         AD vind (axial) at blade 2, node 4, m/s
         76    0.000000000000E+000                                                     T               2         AD vind (tangential) at blade 2, node 4, m/s
         77   -2.015819292855E+000                                                     T               2         AD vind (axial) at blade 2, node 5, m/s
         78    9.496231245218E-001                                                     T               2         AD vind (tangential) at blade 2, node 5, m/s
         79   -2.176724437664E+000                                                     T               2         AD vind (axial) at blade 2, node 6, m/s
         80    7.646811300274E-001                                                     T               2         AD vind (tangential) at blade 2, node 6, m/s
         81   -1.996911067903E+000                                                     T               2         AD vind (axial) at blade 2, node 7, m/s
         82    5.850858272361E-001                                                     T               2         AD vind (tangential) at blade 2, node 7, m/s
         83   -1.983123736399E+000                                                     T               2         AD vind (axial) at blade 2, node 8, m/s
         84    4.871341591898E-001                                                     T               2         AD vind (tangential) at blade 2, node 8, m/s
         85   -2.219525257312E+000                                                     T               2         AD vind (axial) at blade 2, node 9, m/s
         86    4.490077399779E-001                                                     T               2         AD vind (tangential) at blade 2, node 9, m/s
         87   -2.293881292145E+000                                                     T               2         AD vind (axial) at blade 2, node 10, m/s
         88    4.007819500742E-001                                                     T               2         AD vind (tangential) at blade 2, node 10, m/s
         89   -2.577159759922E+000                                                     T               2         AD vind (axial) at blade 2, node 11, m/s
         90    3.797739524414E-001                                                     T               2         AD vind (tangential) at blade 2, node 11, m/s
         91   -2.779850493985E+000                                                     T               2         AD vind (axial) at blade 2, node 12, m/s
         92    3.541651051106E-001                                                     T               2         AD vind (tangential) at blade 2, node 12, m/s
         93   -2.636773917057E+000                                                     T               2         AD vind (axial) at blade 2, node 13, m/s
         94    3.131211659846E-001                                                     T               2         AD vind (tangential) at blade 2, node 13, m/s
         95   -2.753664748807E+000                                                     T               2         AD vind (axial) at blade 2, node 14, m/s
         96    2.922311029525E-001                                                     T               2         AD vind (tangential) at blade 2, node 14, m/s
         97   -2.918053206172E+000                                                     T               2         AD vind (axial) at blade 2, node 15, m/s
         98    2.758247194658E-001                                                     T               2         AD vind (tangential) at blade 2, node 15, m/s
         99   -3.179678736698E+000                                                     T               2         AD vind (axial) at blade 2, node 16, m/s
        100    2.670083077771E-001                                                     T               2         AD vind (tangential) at blade 2, node 16, m/s
        101   -3.494708083537E+000                                                     T               2         AD vind (axial) at blade 2, node 17, m/s
        102    2.639849897021E-001                                                     T               2         AD vind (tangential) at blade 2, node 17, m/s
        103   -3.640598463729E+000                                                     T               2         AD vind (axial) at blade 2, node 18, m/s
        104    2.600225564545E-001                                                     T               2         AD vind (tangential) at blade 2, node 18, m/s
        105   -7.919232136511E+000                                                     T               2         AD vind (axial) at blade 2, node 19, m/s
        106    0.000000000000E+000                                                     T               2         AD vind (tangential) at blade 2, node 19, m/s
        107   -7.866904507949E+000                                                     T               2         AD vind (axial) at blade 3, node 1, m/s
        108    0.000000000000E+000                                                     T               2         AD vind (tangential) at blade 3, node 1, m/s
        109    0.000000000000E+000                                                     T               2         AD vind (axial) at blade 3, node 2, m/s
        110    0.000000000000E+000                                                     T               2         AD vind (tangential) at blade 3, node 2, m/s
        111    0.000000000000E+000                                                     T               2         AD vind (axial) at blade 3, node 3, m/s
        112    0.000000000000E+000                                                     T               2         AD vind (tangential) at blade 3, node 3, m/s
        113    0.000000000000E+000                                                     T               2         AD vind (axial) at blade 3, node 4, m/s
        114    0.000000000000E+000                                                     T               2         AD vind (tangential) at blade 3, node 4, m/s
        115   -2.024086393022E+000                                                     T               2         AD vind (axial) at blade 3, node 5, m/s
        116    9.548763496440E-001                                                     T               2         AD vind (tangential) at blade 3, node 5, m/s
        117   -2.183732505341E+000                                                     T               2         AD vind (axial) at blade 3, node 6, m/s
        118    7.677076358361E-001                                                     T               2         AD vind (tangential) at blade 3, node 6, m/s
        119   -2.001238841934E+000                                                     T               2         AD vind (axial) at blade 3, node 7, m/s
        120    5.866330110382E-001                                                     T               2         AD vind (tangential) at blade 3, node 7, m/s
        121   -1.985639654437E+000                                                     T               2         AD vind (axial) at blade 3, node 8, m/s
        122    4.879027798932E-001                                                     T               2         AD vind (tangential) at blade 3, node 8, m/s
        123   -2.220738653190E+000                                                     T               2         AD vind (axial) at blade 3, node 9, m/s
        124    4.493450622792E-001                                                     T               2         AD vind (tangential) at blade 3, node 9, m/s
        125   -2.293539028901E+000                                                     T               2         AD vind (axial) at blade 3, node 10, m/s
        126    4.007683044761E-001                                                     T               2         AD vind (tangential) at blade 3, node 10, m/s
        127   -2.575047547336E+000                                                     T               2         AD vind (axial) at blade 3, node 11, m/s
        128    3.795044424142E-001                                                     T               2         AD vind (tangential) at blade 3, node 11, m/s
        129   -2.775265507135E+000                                                     T               2         AD vind (axial) at blade 3, node 12, m/s
        130    3.536551094517E-001                                                     T               2         AD vind (tangential) at blade 3, node 12, m/s
        131   -2.629642291415E+000                                                     T               2         AD vind (axial) at blade 3, node 13, m/s
        132    3.123689010220E-001                                                     T               2         AD vind (tangential) at blade 3, node 13, m/s
        133   -2.742631369559E+000                                                     T               2         AD vind (axial) at blade 3, node 14, m/s
        134    2.912896816887E-001                                                     T               2         AD vind (tangential) at blade 3, node 14, m/s
        135   -2.901916790753E+000                                                     T               2         AD vind (axial) at blade 3, node 15, m/s
        136    2.747728275474E-001                                                     T               2         AD vind (tangential) at blade 3, node 15, m/s
        137   -3.157965514466E+000                                                     T               2         AD vind (axial) at blade 3, node 16, m/s
        138    2.660068757442E-001                                                     T               2         AD vind (tangential) at blade 3, node 16, m/s
        139   -3.472010962889E+000                                                     T               2         AD vind (axial) at blade 3, node 17, m/s
        140    2.630115549761E-001                                                     T               2         AD vind (tangential) at blade 3, node 17, m/s
        141   -3.619687886992E+000                                                     T               2         AD vind (axial) at blade 3, node 18, m/s
        142    2.591827310846E-001                                                     T               2         AD vind (tangential) at blade 3, node 18, m/s
        143   -7.912033462805E+000                                                     T               2         AD vind (axial) at blade 3, node 19, m/s
        144    0.000000000000E+000                                                     T               2         AD vind (tangential) at blade 3, node 19, m/s
        145   -3.040189634482E+000                                                     T               2         AD First time derivative of vind (axial) at blade 1, node 1, m/s/s
        146    0.000000000000E+000                                                     T               2         AD First time derivative of vind (tangential) at blade 1, node 1, m/s/s
        147    0.000000000000E+000                                                     T               2         AD First time derivative of vind (axial) at blade 1, node 2, m/s/s
        148    0.000000000000E+000                                                     T               2         AD First time derivative of vind (tangential) at blade 1, node 2, m/s/s
        149    0.000000000000E+000                                                     T               2         AD First time derivative of vind (axial) at blade 1, node 3, m/s/s
        150    0.000000000000E+000                                                     T               2         AD First time derivative of vind (tangential) at blade 1, node 3, m/s/s
        151    0.000000000000E+000                                                     T               2         AD First time derivative of vind (axial) at blade 1, node 4, m/s/s
        152    0.000000000000E+000                                                     T               2         AD First time derivative of vind (tangential) at blade 1, node 4, m/s/s
        153   -8.046160612848E-001                                                     T               2         AD First time derivative of vind (axial) at blade 1, node 5, m/s/s
        154    3.765817545355E-001                                                     T               2         AD First time derivative of vind (tangential) at blade 1, node 5, m/s/s
        155   -8.671314487759E-001                                                     T               2         AD First time derivative of vind (axial) at blade 1, node 6, m/s/s
        156    3.038875491197E-001                                                     T               2         AD First time derivative of vind (tangential) at blade 1, node 6, m/s/s
        157   -7.963161995858E-001                                                     T               2         AD First time derivative of vind (axial) at blade 1, node 7, m/s/s
        158    2.330224633261E-001                                                     T               2         AD First time derivative of vind (tangential) at blade 1, node 7, m/s/s
        159   -7.915399155528E-001                                                     T               2         AD First time derivative of vind (axial) at blade 1, node 8, m/s/s
        160    1.943303473907E-001                                                     T               2         AD First time derivative of vind (tangential) at blade 1, node 8, m/s/s
        161   -8.863000854736E-001                                                     T               2         AD First time derivative of vind (axial) at blade 1, node 9, m/s/s
        162    1.793234633498E-001                                                     T               2         AD First time derivative of vind (tangential) at blade 1, node 9, m/s/s
        163   -9.159773831239E-001                                                     T               2         AD First time derivative of vind (axial) at blade 1, node 10, m/s/s
        164    1.601916568498E-001                                                     T               2         AD First time derivative of vind (tangential) at blade 1, node 10, m/s/s
        165   -1.028555270006E+000                                                     T               2         AD First time derivative of vind (axial) at blade 1, node 11, m/s/s
        166    1.518721153241E-001                                                     T               2         AD First time derivative of vind (tangential) at blade 1, node 11, m/s/s
        167   -1.108390960717E+000                                                     T               2         AD First time derivative of vind (axial) at blade 1, node 12, m/s/s
        168    1.416844325140E-001                                                     T               2         AD First time derivative of vind (tangential) at blade 1, node 12, m/s/s
        169   -1.050368463844E+000                                                     T               2         AD First time derivative of vind (axial) at blade 1, node 13, m/s/s
        170    1.252825528098E-001                                                     T               2         AD First time derivative of vind (tangential) at blade 1, node 13, m/s/s