
Linearized model: Predictions were generated on 19-Sep-2024 at 15:25:19 using OpenFAST, compiled on Sep 19 2024 at 15:09:19 as a 64-bit application using double precision at commit -128-NOTFOUND
 linked with  NWTC Subroutine Library; ElastoDyn; InflowWind; AeroDyn; ServoDyn

Description from the FAST input file: NREL 5.0 MW Baseline Wind Turbine (Onshore), Linearization with AeroDyn + ED

Simulation information:
   Simulation time:                   241.0100 s
   Rotor Speed:                         0.9987 rad/s
   Azimuth:                             4.1940 rad
   Wind Speed:                          8.0000 m/s
   Number of continuous states:       258
   Number of discrete states:           0
   Number of constraint states:         0
   Number of inputs:                   69
   Number of outputs:                   5
   Jacobians included in this file?    No

Order of continuous states:
   Row/Column Operating Point                                                   Rotating Frame? Derivative Order Description
   ---------- ---------------                                                   --------------- ---------------- -----------
          1    2.080575639564E-001                                                     F               2         ED 1st tower fore-aft bending mode DOF (internal DOF index = DOF_TFA1), m
          2    2.165485690884E-002                                                     F               2         ED 1st tower side-to-side bending mode DOF (internal DOF index = DOF_TSS1), m
          3   -7.244214118323E-005                                                     F               2         ED 2nd tower fore-aft bending mode DOF (internal DOF index = DOF_TFA2), m
          4    1.406799730244E-004                                                     F               2         ED 2nd tower side-to-side bending mode DOF (internal DOF index = DOF_TSS2), m
          5    2.621068249644E+000                                                     F               2         ED Variable speed generator DOF (internal DOF index = DOF_GeAz), rad
          6    2.175756126695E-003                                                     F               2         ED Drivetrain rotational-flexibility DOF (internal DOF index = DOF_DrTr), rad
          7    3.046472516358E+000                                                     T               2         ED 1st flapwise bending-mode DOF of blade 1 (internal DOF index = DOF_BF(1,1)), m
          8    3.173407117472E+000                                                     T               2         ED 1st flapwise bending-mode DOF of blade 2 (internal DOF index = DOF_BF(2,1)), m
          9    3.348409537877E+000                                                     T               2         ED 1st flapwise bending-mode DOF of blade 3 (internal DOF index = DOF_BF(3,1)), m
         10    4.958771835837E-001                                                     T               2         ED 1st edgewise bending-mode DOF of blade 1 (internal DOF index = DOF_BE(1,1)), m
         11    8.220019785206E-002                                                     T               2         ED 1st edgewise bending-mode DOF of blade 2 (internal DOF index = DOF_BE(2,1)), m
         12   -3.111055873463E-001                                                     T               2         ED 1st edgewise bending-mode DOF of blade 3 (internal DOF index = DOF_BE(3,1)), m
         13    8.516636136388E-002                                                     T               2         ED 2nd flapwise bending-mode DOF of blade 1 (internal DOF index = DOF_BF(1,2)), m
         14    5.559872843588E-002                                                     T               2         ED 2nd flapwise bending-mode DOF of blade 2 (internal DOF index = DOF_BF(2,2)), m
         15   -8.608327545608E-003                                                     T               2         ED 2nd flapwise bending-mode DOF of blade 3 (internal DOF index = DOF_BF(3,2)), m
         16    1.428925233660E-004                                                     F               2         ED First time derivative of 1st tower fore-aft bending mode DOF (internal DOF index = DOF_TFA1), m/s
         17   -7.215770944686E-004                                                     F               2         ED First time derivative of 1st tower side-to-side bending mode DOF (internal DOF index = DOF_TSS1), m/s
         18   -2.072293802565E-005                                                     F               2         ED First time derivative of 2nd tower fore-aft bending mode DOF (internal DOF index = DOF_TFA2), m/s
         19   -3.996486483222E-005                                                     F               2         ED First time derivative of 2nd tower side-to-side bending mode DOF (internal DOF index = DOF_TSS2), m/s
         20    9.988446453472E-001                                                     F               2         ED First time derivative of Variable speed generator DOF (internal DOF index = DOF_GeAz), rad/s
         21   -1.378453922499E-004                                                     F               2         ED First time derivative of Drivetrain rotational-flexibility DOF (internal DOF index = DOF_DrTr), rad/s
         22   -1.353374520934E-001                                                     T               2         ED First time derivative of 1st flapwise bending-mode DOF of blade 1 (internal DOF index = DOF_BF(1,1)), m/s
         23    2.064219091604E-001                                                     T               2         ED First time derivative of 1st flapwise bending-mode DOF of blade 2 (internal DOF index = DOF_BF(2,1)), m/s
         24   -1.074233295941E-001                                                     T               2         ED First time derivative of 1st flapwise bending-mode DOF of blade 3 (internal DOF index = DOF_BF(3,1)), m/s
         25    2.387561267031E-001                                                     T               2         ED First time derivative of 1st edgewise bending-mode DOF of blade 1 (internal DOF index = DOF_BE(1,1)), m/s
         26   -5.001710659480E-001                                                     T               2         ED First time derivative of 1st edgewise bending-mode DOF of blade 2 (internal DOF index = DOF_BE(2,1)), m/s
         27    2.814328908676E-001                                                     T               2         ED First time derivative of 1st edgewise bending-mode DOF of blade 3 (internal DOF index = DOF_BE(3,1)), m/s
         28    8.711565559484E-002                                                     T               2         ED First time derivative of 2nd flapwise bending-mode DOF of blade 1 (internal DOF index = DOF_BF(1,2)), m/s
         29   -6.347754451146E-002                                                     T               2         ED First time derivative of 2nd flapwise bending-mode DOF of blade 2 (internal DOF index = DOF_BF(2,2)), m/s
         30    2.202153503462E-002                                                     T               2         ED First time derivative of 2nd flapwise bending-mode DOF of blade 3 (internal DOF index = DOF_BF(3,2)), m/s
         31   -7.544390229405E+000                                                     T               2         AD vind (axial) at blade 1, node 1, m/s
         32    0.000000000000E+000                                                     T               2         AD vind (tangential) at blade 1, node 1, m/s
         33    0.000000000000E+000                                                     T               2         AD vind (axial) at blade 1, node 2, m/s
         34    0.000000000000E+000                                                     T               2         AD vind (tangential) at blade 1, node 2, m/s
         35    0.000000000000E+000                                                     T               2         AD vind (axial) at blade 1, node 3, m/s
         36    0.000000000000E+000                                                     T               2         AD vind (tangential) at blade 1, node 3, m/s
         37    0.000000000000E+000                                                     T               2         AD vind (axial) at blade 1, node 4, m/s
         38    0.000000000000E+000                                                     T               2         AD vind (tangential) at blade 1, node 4, m/s
         39   -2.002692915624E+000                                                     T               2         AD vind (axial) at blade 1, node 5, m/s
         40    9.402003154490E-001                                                     T               2         AD vind (tangential) at blade 1, node 5, m/s
         41   -2.165070097560E+000                                                     T               2         AD vind (axial) at blade 1, node 6, m/s
         42    7.605442002436E-001                                                     T               2         AD vind (tangential) at blade 1, node 6, m/s
         43   -1.989500797722E+000                                                     T               2         AD vind (axial) at blade 1, node 7, m/s
         44    5.835306009868E-001                                                     T               2         AD vind (tangential) at blade 1, node 7, m/s
         45   -1.977813243608E+000                                                     T               2         AD vind (axial) at blade 1, node 8, m/s
         46    4.867638060783E-001                                                     T               2         AD vind (tangential) at blade 1, node 8, m/s
         47   -2.213245925782E+000                                                     T               2         AD vind (axial) at blade 1, node 9, m/s
         48    4.490978057609E-001                                                     T               2         AD vind (tangential) at blade 1, node 9, m/s
         49   -2.286828846136E+000                                                     T               2         AD vind (axial) at blade 1, node 10, m/s
         50    4.012360900747E-001                                                     T               2         AD vind (tangential) at blade 1, node 10, m/s
         51   -2.565694521643E+000                                                     T               2         AD vind (axial) at blade 1, node 11, m/s
         52    3.803713256315E-001                                                     T               2         AD vind (tangential) at blade 1, node 11, m/s
         53   -2.762894735510E+000                                                     T               2         AD vind (axial) at blade 1, node 12, m/s
         54    3.549027997064E-001                                                     T               2         AD vind (tangential) at blade 1, node 12, m/s
         55   -2.617481615270E+000                                                     T               2         AD vind (axial) at blade 1, node 13, m/s
         56    3.138432122289E-001                                                     T               2         AD vind (tangential) at blade 1, node 13, m/s
         57   -2.728700051794E+000                                                     T               2         AD vind (axial) at blade 1, node 14, m/s
         58    2.930041608875E-001                                                     T               2         AD vind (tangential) at blade 1, node 14, m/s
         59   -2.886795951851E+000                                                     T               2         AD vind (axial) at blade 1, node 15, m/s
         60    2.767308670179E-001                                                     T               2         AD vind (tangential) at blade 1, node 15, m/s
         61   -3.141214867019E+000                                                     T               2         AD vind (axial) at blade 1, node 16, m/s
         62    2.682478392384E-001                                                     T               2         AD vind (tangential) at blade 1, node 16, m/s
         63   -3.456986677716E+000                                                     T               2         AD vind (axial) at blade 1, node 17, m/s
         64    2.653780371597E-001                                                     T               2         AD vind (tangential) at blade 1, node 17, m/s
         65   -3.609730754978E+000                                                     T               2         AD vind (axial) at blade 1, node 18, m/s
         66    2.613057107501E-001                                                     T               2         AD vind (tangential) at blade 1, node 18, m/s
         67   -7.910912949164E+000                                                     T               2         AD vind (axial) at blade 1, node 19, m/s
         68    0.000000000000E+000                                                     T               2         AD vind (tangential) at blade 1, node 19, m/s
         69   -7.783091405418E+000                                                     T               2         AD vind (axial) at blade 2, node 1, m/s
         70    0.000000000000E+000                                                     T               2         AD vind (tangential) at blade 2, node 1, m/s
         71    0.000000000000E+000                                                     T               2         AD vind (axial) at blade 2, node 2, m/s
         72    0.000000000000E+000                                                     T               2         AD vind (tangential) at blade 2, node 2, m/s
         73    0.000000000000E+000                                                     T               2         AD vind (axial) at blade 2, node 3, m/s
         74    0.000000000000E+000                                                     T               2         AD vind (tangential) at blade 2, node 3, m/s
         75    0.000000000000E+000                                                     T               2         AD vind (axial) at blade 2, node 4, m/s
         76    0.000000000000E+000                                                     T               2         AD vind (tangential) at blade 2, node 4, m/s
         77   -2.011487324166E+000                                                     T               2         AD vind (axial) at blade 2, node 5, m/s
         78    9.500257836156E-001                                                     T               2         AD vind (tangential) at blade 2, node 5, m/s
         79   -2.176314274866E+000                                                     T               2         AD vind (axial) at blade 2, node 6, m/s
         80    7.659916903730E-001                                                     T               2         AD vind (tangential) at blade 2, node 6, m/s
         81   -1.996929478141E+000                                                     T               2         AD vind (axial) at blade 2, node 7, m/s
         82    5.861815791210E-001                                                     T               2         AD vind (tangential) at blade 2, node 7, m/s
         83   -1.982952947685E+000                                                     T               2         AD vind (axial) at blade 2, node 8, m/s
         84    4.880234847557E-001                                                     T               2         AD vind (tangential) at blade 2, node 8, m/s
         85   -2.218032746243E+000                                                     T               2         AD vind (axial) at blade 2, node 9, m/s
         86    4.496709943986E-001                                                     T               2         AD vind (tangential) at blade 2, node 9, m/s
         87   -2.291800169409E+000                                                     T               2         AD vind (axial) at blade 2, node 10, m/s
         88    4.013245648550E-001                                                     T               2         AD vind (tangential) at blade 2, node 10, m/s
         89   -2.573253394162E+000                                                     T               2         AD vind (axial) at blade 2, node 11, m/s
         90    3.801941693663E-001                                                     T               2         AD vind (tangential) at blade 2, node 11, m/s
         91   -2.774503000314E+000                                                     T               2         AD vind (axial) at blade 2, node 12, m/s
         92    3.545237383038E-001                                                     T               2         AD vind (tangential) at blade 2, node 12, m/s
         93   -2.631276320497E+000                                                     T               2         AD vind (axial) at blade 2, node 13, m/s
         94    3.133940607047E-001                                                     T               2         AD vind (tangential) at blade 2, node 13, m/s
         95   -2.747198006768E+000                                                     T               2         AD vind (axial) at blade 2, node 14, m/s
         96    2.924787759168E-001                                                     T               2         AD vind (tangential) at blade 2, node 14, m/s
         97   -2.910632805413E+000                                                     T               2         AD vind (axial) at blade 2, node 15, m/s
         98    2.760806214494E-001                                                     T               2         AD vind (tangential) at blade 2, node 15, m/s
         99   -3.171506110116E+000                                                     T               2         AD vind (axial) at blade 2, node 16, m/s
        100    2.673145314843E-001                                                     T               2         AD vind (tangential) at blade 2, node 16, m/s
        101   -3.487826952108E+000                                                     T               2         AD vind (axial) at blade 2, node 17, m/s
        102    2.642954233592E-001                                                     T               2         AD vind (tangential) at blade 2, node 17, m/s
        103   -3.635779313467E+000                                                     T               2         AD vind (axial) at blade 2, node 18, m/s
        104    2.603337367332E-001                                                     T               2         AD vind (tangential) at blade 2, node 18, m/s
        105   -7.920347474542E+000                                                     T               2         AD vind (axial) at blade 2, node 19, m/s
        106    0.000000000000E+000                                                     T               2         AD vind (tangential) at blade 2, node 19, m/s
        107   -7.867359891854E+000                                                     T               2         AD vind (axial) at blade 3, node 1, m/s
        108    0.000000000000E+000                                                     T               2         AD vind (tangential) at blade 3, node 1, m/s
        109    0.000000000000E+000                                                     T               2         AD vind (axial) at blade 3, node 2, m/s
        110    0.000000000000E+000                                                     T               2         AD vind (tangential) at blade 3, node 2, m/s
        111    0.000000000000E+000                                                     T               2         AD vind (axial) at blade 3, node 3, m/s
        112    0.000000000000E+000                                                     T               2         AD vind (tangential) at blade 3, node 3, m/s
        113    0.000000000000E+000                                                     T               2         AD vind (axial) at blade 3, node 4, m/s
        114    0.000000000000E+000                                                     T               2         AD vind (tangential) at blade 3, node 4, m/s
        115   -2.020292753207E+000                                                     T               2         AD vind (axial) at blade 3, node 5, m/s
        116    9.552357187019E-001                                                     T               2         AD vind (tangential) at blade 3, node 5, m/s
        117   -2.183347994325E+000                                                     T               2         AD vind (axial) at blade 3, node 6, m/s
        118    7.688858508658E-001                                                     T               2         AD vind (tangential) at blade 3, node 6, m/s
        119   -2.001248970558E+000                                                     T               2         AD vind (axial) at blade 3, node 7, m/s
        120    5.876375481418E-001                                                     T               2         AD vind (tangential) at blade 3, node 7, m/s
        121   -1.985477650772E+000                                                     T               2         AD vind (axial) at blade 3, node 8, m/s
        122    4.887277752638E-001                                                     T               2         AD vind (tangential) at blade 3, node 8, m/s
        123   -2.219334167887E+000                                                     T               2         AD vind (axial) at blade 3, node 9, m/s
        124    4.499640121843E-001                                                     T               2         AD vind (tangential) at blade 3, node 9, m/s
        125   -2.291582413120E+000                                                     T               2         AD vind (axial) at blade 3, node 10, m/s
        126    4.012773242229E-001                                                     T               2         AD vind (tangential) at blade 3, node 10, m/s
        127   -2.571367114177E+000                                                     T               2         AD vind (axial) at blade 3, node 11, m/s
        128    3.798990899186E-001                                                     T               2         AD vind (tangential) at blade 3, node 11, m/s
        129   -2.770241089706E+000                                                     T               2         AD vind (axial) at blade 3, node 12, m/s
        130    3.539933106721E-001                                                     T               2         AD vind (tangential) at blade 3, node 12, m/s
        131   -2.624492897612E+000                                                     T               2         AD vind (axial) at blade 3, node 13, m/s
        132    3.126280555446E-001                                                     T               2         AD vind (tangential) at blade 3, node 13, m/s
        133   -2.736614210731E+000                                                     T               2         AD vind (axial) at blade 3, node 14, m/s
        134    2.915281894078E-001                                                     T               2         AD vind (tangential) at blade 3, node 14, m/s
        135   -2.895077010629E+000                                                     T               2         AD vind (axial) at blade 3, node 15, m/s
        136    2.750228356566E-001                                                     T               2         AD vind (tangential) at blade 3, node 15, m/s
        137   -3.150457378099E+000                                                     T               2         AD vind (axial) at blade 3, node 16, m/s
        138    2.663083593581E-001                                                     T               2         AD vind (tangential) at blade 3, node 16, m/s
        139   -3.465708467899E+000                                                     T               2         AD vind (axial) at blade 3, node 17, m/s
        140    2.633190343504E-001                                                     T               2         AD vind (tangential) at blade 3, node 17, m/s
        141   -3.615304636063E+000                                                     T               2         AD vind (axial) at blade 3, node 18, m/s
        142    2.594890517742E-001                                                     T               2         AD vind (tangential) at blade 3, node 18, m/s
        143   -7.913089096846E+000                                                     T               2         AD vind (axial) at blade 3, node 19, m/s
        144    0.000000000000E+000                                                     T               2         AD vind (tangential) at blade 3, node 19, m/s
        145   -3.040011704790E+000                                                     T               2         AD First time derivative of vind (axial) at blade 1, node 1, m/s/s
        146    0.000000000000E+000                                                     T               2         AD First time derivative of vind (tangential) at blade 1, node 1, m/s/s
        147    0.000000000000E+000                                                     T               2         AD First time derivative of vind (axial) at blade 1, node 2, m/s/s
        148    0.000000000000E+000                                                     T               2         AD First time derivative of vind (tangential) at blade 1, node 2, m/s/s
        149    0.000000000000E+000                                                     T               2         AD First time derivative of vind (axial) at blade 1, node 3, m/s/s
        150    0.000000000000E+000                                                     T               2         AD First time derivative of vind (tangential) at blade 1, node 3, m/s/s
        151    0.000000000000E+000                                                     T               2         AD First time derivative of vind (axial) at blade 1, node 4, m/s/s
        152    0.000000000000E+000                                                     T               2         AD First time derivative of vind (tangential) at blade 1, node 4, m/s/s
        153   -8.031188270097E-001                                                     T               2         AD First time derivative of vind (axial) at blade 1, node 5, m/s/s
        154    3.767283039896E-001                                                     T               2         AD First time derivative of vind (tangential) at blade 1, node 5, m/s/s
        155   -8.669520456128E-001                                                     T               2         AD First time derivative of vind (axial) at blade 1, node 6, m/s/s
        156    3.043561521291E-001                                                     T               2         AD First time derivative of vind (tangential) at blade 1, node 6, m/s/s
        157   -7.963084327768E-001                                                     T               2         AD First time derivative of vind (axial) at blade 1, node 7, m/s/s
        158    2.334282813932E-001                                                     T               2         AD First time derivative of vind (tangential) at blade 1, node 7, m/s/s
        159   -7.914565275668E-001                                                     T               2         AD First time derivative of vind (axial) at blade 1, node 8, m/s/s
        160    1.946649892674E-001                                                     T               2         AD First time derivative of vind (tangential) at blade 1, node 8, m/s/s
        161   -8.857068345626E-001                                                     T               2         AD First time derivative of vind (axial) at blade 1, node 9, m/s/s
        162    1.795757984420E-001                                                     T               2         AD First time derivative of vind (tangential) at blade 1, node 9, m/s/s
        163   -9.151460775844E-001                                                     T               2         AD First time derivative of vind (axial) at blade 1, node 10, m/s/s
        164    1.603993186260E-001                                                     T               2         AD First time derivative of vind (tangential) at blade 1, node 10, m/s/s
        165   -1.027005972988E+000                                                     T               2         AD First time derivative of vind (axial) at blade 1, node 11, m/s/s
        166    1.520337403809E-001                                                     T               2         AD First time derivative of vind (tangential) at blade 1, node 11, m/s/s
        167   -1.106260980730E+000                                                     T               2         AD First time derivative of vind (axial) at blade 1, node 12, m/s/s
        168    1.418223993333E-001                                                     T               2         AD First time derivative of vind (tangential) at blade 1, node 12, m/s/s
        169   -1.048182884670E+000                                                     T               2         AD First time derivative of vind (axial) at blade 1, node 13, m/s/s
        170    1.253884099266E-001                                                     T               2         AD First time derivative of vind (tangential) at blade 1, node 13, m/s/s