
Linearized model: Predictions were generated on 19-Sep-2024 at 15:25:19 using OpenFAST, compiled on Sep 19 2024 at 15:09:19 as a 64-bit application using double precision at commit -128-NOTFOUND
 linked with  NWTC Subroutine Library; ElastoDyn; InflowWind; AeroDyn; ServoDyn

Description from the FAST input file: NREL 5.0 MW Baseline Wind Turbine (Onshore), Linearization with AeroDyn + ED

Simulation information:
   Simulation time:                   238.9100 s
   Rotor Speed:                         0.9984 rad/s
   Azimuth:                             2.0973 rad
   Wind Speed:                          8.0000 m/s
   Number of continuous states:       258
   Number of discrete states:           0
   Number of constraint states:         0
   Number of inputs:                   69
   Number of outputs:                   5
   Jacobians included in this file?    No

Order of continuous states:
   Row/Column Operating Point                                                   Rotating Frame? Derivative Order Description
   ---------- ---------------                                                   --------------- ---------------- -----------
          1    2.079900820456E-001                                                     F               2         ED 1st tower fore-aft bending mode DOF (internal DOF index = DOF_TFA1), m
          2    2.192702076938E-002                                                     F               2         ED 1st tower side-to-side bending mode DOF (internal DOF index = DOF_TSS1), m
          3   -7.241464276415E-005                                                     F               2         ED 2nd tower fore-aft bending mode DOF (internal DOF index = DOF_TFA2), m
          4    1.409005980114E-004                                                     F               2         ED 2nd tower side-to-side bending mode DOF (internal DOF index = DOF_TSS2), m
          5    5.242885878998E-001                                                     F               2         ED Variable speed generator DOF (internal DOF index = DOF_GeAz), rad
          6    2.179597847521E-003                                                     F               2         ED Drivetrain rotational-flexibility DOF (internal DOF index = DOF_DrTr), rad
          7    3.347880190325E+000                                                     T               2         ED 1st flapwise bending-mode DOF of blade 1 (internal DOF index = DOF_BF(1,1)), m
          8    3.045877521645E+000                                                     T               2         ED 1st flapwise bending-mode DOF of blade 2 (internal DOF index = DOF_BF(2,1)), m
          9    3.172093054355E+000                                                     T               2         ED 1st flapwise bending-mode DOF of blade 3 (internal DOF index = DOF_BF(3,1)), m
         10   -3.118984636626E-001                                                     T               2         ED 1st edgewise bending-mode DOF of blade 1 (internal DOF index = DOF_BE(1,1)), m
         11    4.950786537535E-001                                                     T               2         ED 1st edgewise bending-mode DOF of blade 2 (internal DOF index = DOF_BE(2,1)), m
         12    8.315070204256E-002                                                     T               2         ED 1st edgewise bending-mode DOF of blade 3 (internal DOF index = DOF_BE(3,1)), m
         13   -8.715311304811E-003                                                     T               2         ED 2nd flapwise bending-mode DOF of blade 1 (internal DOF index = DOF_BF(1,2)), m
         14    8.494393274478E-002                                                     T               2         ED 2nd flapwise bending-mode DOF of blade 2 (internal DOF index = DOF_BF(2,2)), m
         15    5.571547124226E-002                                                     T               2         ED 2nd flapwise bending-mode DOF of blade 3 (internal DOF index = DOF_BF(3,2)), m
         16    1.031137041502E-004                                                     F               2         ED First time derivative of 1st tower fore-aft bending mode DOF (internal DOF index = DOF_TFA1), m/s
         17   -7.387065289453E-004                                                     F               2         ED First time derivative of 1st tower side-to-side bending mode DOF (internal DOF index = DOF_TSS1), m/s
         18   -2.321508057672E-005                                                     F               2         ED First time derivative of 2nd tower fore-aft bending mode DOF (internal DOF index = DOF_TFA2), m/s
         19   -3.820352882169E-005                                                     F               2         ED First time derivative of 2nd tower side-to-side bending mode DOF (internal DOF index = DOF_TSS2), m/s
         20    9.985092148834E-001                                                     F               2         ED First time derivative of Variable speed generator DOF (internal DOF index = DOF_GeAz), rad/s
         21   -1.324823681346E-004                                                     F               2         ED First time derivative of Drivetrain rotational-flexibility DOF (internal DOF index = DOF_DrTr), rad/s
         22   -1.071072952603E-001                                                     T               2         ED First time derivative of 1st flapwise bending-mode DOF of blade 1 (internal DOF index = DOF_BF(1,1)), m/s
         23   -1.348529090607E-001                                                     T               2         ED First time derivative of 1st flapwise bending-mode DOF of blade 2 (internal DOF index = DOF_BF(2,1)), m/s
         24    2.059589102905E-001                                                     T               2         ED First time derivative of 1st flapwise bending-mode DOF of blade 3 (internal DOF index = DOF_BF(3,1)), m/s
         25    2.797310207710E-001                                                     T               2         ED First time derivative of 1st edgewise bending-mode DOF of blade 1 (internal DOF index = DOF_BE(1,1)), m/s
         26    2.406605379931E-001                                                     T               2         ED First time derivative of 1st edgewise bending-mode DOF of blade 2 (internal DOF index = DOF_BE(2,1)), m/s
         27   -4.991026969218E-001                                                     T               2         ED First time derivative of 1st edgewise bending-mode DOF of blade 3 (internal DOF index = DOF_BE(3,1)), m/s
         28    2.219126449198E-002                                                     T               2         ED First time derivative of 2nd flapwise bending-mode DOF of blade 1 (internal DOF index = DOF_BF(1,2)), m/s
         29    8.720975956812E-002                                                     T               2         ED First time derivative of 2nd flapwise bending-mode DOF of blade 2 (internal DOF index = DOF_BF(2,2)), m/s
         30   -6.342364479142E-002                                                     T               2         ED First time derivative of 2nd flapwise bending-mode DOF of blade 3 (internal DOF index = DOF_BF(3,2)), m/s
         31   -7.867558579662E+000                                                     T               2         AD vind (axial) at blade 1, node 1, m/s
         32    0.000000000000E+000                                                     T               2         AD vind (tangential) at blade 1, node 1, m/s
         33    0.000000000000E+000                                                     T               2         AD vind (axial) at blade 1, node 2, m/s
         34    0.000000000000E+000                                                     T               2         AD vind (tangential) at blade 1, node 2, m/s
         35    0.000000000000E+000                                                     T               2         AD vind (axial) at blade 1, node 3, m/s
         36    0.000000000000E+000                                                     T               2         AD vind (tangential) at blade 1, node 3, m/s
         37    0.000000000000E+000                                                     T               2         AD vind (axial) at blade 1, node 4, m/s
         38    0.000000000000E+000                                                     T               2         AD vind (tangential) at blade 1, node 4, m/s
         39   -2.020080219450E+000                                                     T               2         AD vind (axial) at blade 1, node 5, m/s
         40    9.552361796407E-001                                                     T               2         AD vind (tangential) at blade 1, node 5, m/s
         41   -2.183308736331E+000                                                     T               2         AD vind (axial) at blade 1, node 6, m/s
         42    7.689313064235E-001                                                     T               2         AD vind (tangential) at blade 1, node 6, m/s
         43   -2.001235486739E+000                                                     T               2         AD vind (axial) at blade 1, node 7, m/s
         44    5.876798259780E-001                                                     T               2         AD vind (tangential) at blade 1, node 7, m/s
         45   -1.985461857646E+000                                                     T               2         AD vind (axial) at blade 1, node 8, m/s
         46    4.887654084834E-001                                                     T               2         AD vind (tangential) at blade 1, node 8, m/s
         47   -2.219257627081E+000                                                     T               2         AD vind (axial) at blade 1, node 9, m/s
         48    4.499941404858E-001                                                     T               2         AD vind (tangential) at blade 1, node 9, m/s
         49   -2.291476551104E+000                                                     T               2         AD vind (axial) at blade 1, node 10, m/s
         50    4.013042285713E-001                                                     T               2         AD vind (tangential) at blade 1, node 10, m/s
         51   -2.571158863769E+000                                                     T               2         AD vind (axial) at blade 1, node 11, m/s
         52    3.799216250793E-001                                                     T               2         AD vind (tangential) at blade 1, node 11, m/s
         53   -2.769941262883E+000                                                     T               2         AD vind (axial) at blade 1, node 12, m/s
         54    3.540143693755E-001                                                     T               2         AD vind (tangential) at blade 1, node 12, m/s
         55   -2.624162699277E+000                                                     T               2         AD vind (axial) at blade 1, node 13, m/s
         56    3.126454075597E-001                                                     T               2         AD vind (tangential) at blade 1, node 13, m/s
         57   -2.736198815370E+000                                                     T               2         AD vind (axial) at blade 1, node 14, m/s
         58    2.915451535491E-001                                                     T               2         AD vind (tangential) at blade 1, node 14, m/s
         59   -2.894567120488E+000                                                     T               2         AD vind (axial) at blade 1, node 15, m/s
         60    2.750414890084E-001                                                     T               2         AD vind (tangential) at blade 1, node 15, m/s
         61   -3.149856671047E+000                                                     T               2         AD vind (axial) at blade 1, node 16, m/s
         62    2.663321998793E-001                                                     T               2         AD vind (tangential) at blade 1, node 16, m/s
         63   -3.465177909717E+000                                                     T               2         AD vind (axial) at blade 1, node 17, m/s
         64    2.633443457139E-001                                                     T               2         AD vind (tangential) at blade 1, node 17, m/s
         65   -3.614919637564E+000                                                     T               2         AD vind (axial) at blade 1, node 18, m/s
         66    2.595157871875E-001                                                     T               2         AD vind (tangential) at blade 1, node 18, m/s
         67   -7.913224167278E+000                                                     T               2         AD vind (axial) at blade 1, node 19, m/s
         68    0.000000000000E+000                                                     T               2         AD vind (tangential) at blade 1, node 19, m/s
         69   -7.544180676116E+000                                                     T               2         AD vind (axial) at blade 2, node 1, m/s
         70    0.000000000000E+000                                                     T               2         AD vind (tangential) at blade 2, node 1, m/s
         71    0.000000000000E+000                                                     T               2         AD vind (axial) at blade 2, node 2, m/s
         72    0.000000000000E+000                                                     T               2         AD vind (tangential) at blade 2, node 2, m/s
         73    0.000000000000E+000                                                     T               2         AD vind (axial) at blade 2, node 3, m/s
         74    0.000000000000E+000                                                     T               2         AD vind (tangential) at blade 2, node 3, m/s
         75    0.000000000000E+000                                                     T               2         AD vind (axial) at blade 2, node 4, m/s
         76    0.000000000000E+000                                                     T               2         AD vind (tangential) at blade 2, node 4, m/s
         77   -2.002544140432E+000                                                     T               2         AD vind (axial) at blade 2, node 5, m/s
         78    9.401953435576E-001                                                     T               2         AD vind (tangential) at blade 2, node 5, m/s
         79   -2.165005139861E+000                                                     T               2         AD vind (axial) at blade 2, node 6, m/s
         80    7.605753594939E-001                                                     T               2         AD vind (tangential) at blade 2, node 6, m/s
         81   -1.989476625698E+000                                                     T               2         AD vind (axial) at blade 2, node 7, m/s
         82    5.835674087263E-001                                                     T               2         AD vind (tangential) at blade 2, node 7, m/s
         83   -1.977784681061E+000                                                     T               2         AD vind (axial) at blade 2, node 8, m/s
         84    4.867979121374E-001                                                     T               2         AD vind (tangential) at blade 2, node 8, m/s
         85   -2.213158955167E+000                                                     T               2         AD vind (axial) at blade 2, node 9, m/s
         86    4.491258302336E-001                                                     T               2         AD vind (tangential) at blade 2, node 9, m/s
         87   -2.286704016270E+000                                                     T               2         AD vind (axial) at blade 2, node 10, m/s
         88    4.012606968969E-001                                                     T               2         AD vind (tangential) at blade 2, node 10, m/s
         89   -2.565464919235E+000                                                     T               2         AD vind (axial) at blade 2, node 11, m/s
         90    3.803918118998E-001                                                     T               2         AD vind (tangential) at blade 2, node 11, m/s
         91   -2.762559113749E+000                                                     T               2         AD vind (axial) at blade 2, node 12, m/s
         92    3.549211417667E-001                                                     T               2         AD vind (tangential) at blade 2, node 12, m/s
         93   -2.617117437390E+000                                                     T               2         AD vind (axial) at blade 2, node 13, m/s
         94    3.138581741532E-001                                                     T               2         AD vind (tangential) at blade 2, node 13, m/s
         95   -2.728242627266E+000                                                     T               2         AD vind (axial) at blade 2, node 14, m/s
         96    2.930183096570E-001                                                     T               2         AD vind (tangential) at blade 2, node 14, m/s
         97   -2.886235909436E+000                                                     T               2         AD vind (axial) at blade 2, node 15, m/s
         98    2.767460965009E-001                                                     T               2         AD vind (tangential) at blade 2, node 15, m/s
         99   -3.140558874444E+000                                                     T               2         AD vind (axial) at blade 2, node 16, m/s
        100    2.682671090056E-001                                                     T               2         AD vind (tangential) at blade 2, node 16, m/s
        101   -3.456369872307E+000                                                     T               2         AD vind (axial) at blade 2, node 17, m/s
        102    2.653997185093E-001                                                     T               2         AD vind (tangential) at blade 2, node 17, m/s
        103   -3.609244329901E+000                                                     T               2         AD vind (axial) at blade 2, node 18, m/s
        104    2.613279992094E-001                                                     T               2         AD vind (tangential) at blade 2, node 18, m/s
        105   -7.910890054288E+000                                                     T               2         AD vind (axial) at blade 2, node 19, m/s
        106    0.000000000000E+000                                                     T               2         AD vind (tangential) at blade 2, node 19, m/s
        107   -7.782958177359E+000                                                     T               2         AD vind (axial) at blade 3, node 1, m/s
        108    0.000000000000E+000                                                     T               2         AD vind (tangential) at blade 3, node 1, m/s
        109    0.000000000000E+000                                                     T               2         AD vind (axial) at blade 3, node 2, m/s
        110    0.000000000000E+000                                                     T               2         AD vind (tangential) at blade 3, node 2, m/s
        111    0.000000000000E+000                                                     T               2         AD vind (axial) at blade 3, node 3, m/s
        112    0.000000000000E+000                                                     T               2         AD vind (tangential) at blade 3, node 3, m/s
        113    0.000000000000E+000                                                     T               2         AD vind (axial) at blade 3, node 4, m/s
        114    0.000000000000E+000                                                     T               2         AD vind (tangential) at blade 3, node 4, m/s
        115   -2.011311388261E+000                                                     T               2         AD vind (axial) at blade 3, node 5, m/s
        116    9.500328695127E-001                                                     T               2         AD vind (tangential) at blade 3, node 5, m/s
        117   -2.176301121674E+000                                                     T               2         AD vind (axial) at blade 3, node 6, m/s
        118    7.660445521154E-001                                                     T               2         AD vind (tangential) at blade 3, node 6, m/s
        119   -1.996933190215E+000                                                     T               2         AD vind (axial) at blade 3, node 7, m/s
        120    5.862298460622E-001                                                     T               2         AD vind (tangential) at blade 3, node 7, m/s
        121   -1.982951803114E+000                                                     T               2         AD vind (axial) at blade 3, node 8, m/s
        122    4.880667516926E-001                                                     T               2         AD vind (tangential) at blade 3, node 8, m/s
        123   -2.217968149608E+000                                                     T               2         AD vind (axial) at blade 3, node 9, m/s
        124    4.497069451456E-001                                                     T               2         AD vind (tangential) at blade 3, node 9, m/s
        125   -2.291701706707E+000                                                     T               2         AD vind (axial) at blade 3, node 10, m/s
        126    4.013574383204E-001                                                     T               2         AD vind (tangential) at blade 3, node 10, m/s
        127   -2.573041787550E+000                                                     T               2         AD vind (axial) at blade 3, node 11, m/s
        128    3.802230623075E-001                                                     T               2         AD vind (tangential) at blade 3, node 11, m/s
        129   -2.774184611575E+000                                                     T               2         AD vind (axial) at blade 3, node 12, m/s
        130    3.545517142716E-001                                                     T               2         AD vind (tangential) at blade 3, node 12, m/s
        131   -2.630917791840E+000                                                     T               2         AD vind (axial) at blade 3, node 13, m/s
        132    3.134182175311E-001                                                     T               2         AD vind (tangential) at blade 3, node 13, m/s
        133   -2.746735122854E+000                                                     T               2         AD vind (axial) at blade 3, node 14, m/s
        134    2.925030120202E-001                                                     T               2         AD vind (tangential) at blade 3, node 14, m/s
        135   -2.910053053619E+000                                                     T               2         AD vind (axial) at blade 3, node 15, m/s
        136    2.761072555322E-001                                                     T               2         AD vind (tangential) at blade 3, node 15, m/s
        137   -3.170823695606E+000                                                     T               2         AD vind (axial) at blade 3, node 16, m/s
        138    2.673471389147E-001                                                     T               2         AD vind (tangential) at blade 3, node 16, m/s
        139   -3.487246601230E+000                                                     T               2         AD vind (axial) at blade 3, node 17, m/s
        140    2.643293504496E-001                                                     T               2         AD vind (tangential) at blade 3, node 17, m/s
        141   -3.635374156833E+000                                                     T               2         AD vind (axial) at blade 3, node 18, m/s
        142    2.603691905844E-001                                                     T               2         AD vind (tangential) at blade 3, node 18, m/s
        143   -7.920605310397E+000                                                     T               2         AD vind (axial) at blade 3, node 19, m/s
        144    0.000000000000E+000                                                     T               2         AD vind (tangential) at blade 3, node 19, m/s
        145   -3.135364972701E+000                                                     T               2         AD First time derivative of vind (axial) at blade 1, node 1, m/s/s
        146    0.000000000000E+000                                                     T               2         AD First time derivative of vind (tangential) at blade 1, node 1, m/s/s
        147    0.000000000000E+000                                                     T               2         AD First time derivative of vind (axial) at blade 1, node 2, m/s/s
        148    0.000000000000E+000                                                     T               2         AD First time derivative of vind (tangential) at blade 1, node 2, m/s/s
        149    0.000000000000E+000                                                     T               2         AD First time derivative of vind (axial) at blade 1, node 3, m/s/s
        150    0.000000000000E+000                                                     T               2         AD First time derivative of vind (tangential) at blade 1, node 3, m/s/s
        151    0.000000000000E+000                                                     T               2         AD First time derivative of vind (axial) at blade 1, node 4, m/s/s
        152    0.000000000000E+000                                                     T               2         AD First time derivative of vind (tangential) at blade 1, node 4, m/s/s
        153   -8.072321275467E-001                                                     T               2         AD First time derivative of vind (axial) at blade 1, node 5, m/s/s
        154    3.812613559801E-001                                                     T               2         AD First time derivative of vind (tangential) at blade 1, node 5, m/s/s
        155   -8.722373500301E-001                                                     T               2         AD First time derivative of vind (axial) at blade 1, node 6, m/s/s
        156    3.069936705999E-001                                                     T               2         AD First time derivative of vind (tangential) at blade 1, node 6, m/s/s
        157   -7.997331232893E-001                                                     T               2         AD First time derivative of vind (axial) at blade 1, node 7, m/s/s
        158    2.347350798981E-001                                                     T               2         AD First time derivative of vind (tangential) at blade 1, node 7, m/s/s
        159   -7.936662384399E-001                                                     T               2         AD First time derivative of vind (axial) at blade 1, node 8, m/s/s
        160    1.953012180604E-001                                                     T               2         AD First time derivative of vind (tangential) at blade 1, node 8, m/s/s
        161   -8.873924712325E-001                                                     T               2         AD First time derivative of vind (axial) at blade 1, node 9, m/s/s
        162    1.798696042052E-001                                                     T               2         AD First time derivative of vind (tangential) at blade 1, node 9, m/s/s
        163   -9.164753897295E-001                                                     T               2         AD First time derivative of vind (axial) at blade 1, node 10, m/s/s
        164    1.604529833472E-001                                                     T               2         AD First time derivative of vind (tangential) at blade 1, node 10, m/s/s
        165   -1.028603511250E+000                                                     T               2         AD First time derivative of vind (axial) at blade 1, node 11, m/s/s
        166    1.519450478826E-001                                                     T               2         AD First time derivative of vind (tangential) at blade 1, node 11, m/s/s
        167   -1.108425691776E+000                                                     T               2         AD First time derivative of vind (axial) at blade 1, node 12, m/s/s
        168    1.416237647676E-001                                                     T               2         AD First time derivative of vind (tangential) at blade 1, node 12, m/s/s
        169   -1.050457562368E+000                                                     T               2         AD First time derivative of vind (axial) at blade 1, node 13, m/s/s
        170    1.251235846932E-001                                                     T               2         AD First time derivative of vind (tangential) at blade 1, node 13, m/s/s