
Linearized model: Predictions were generated on 03-Jun-2024 at 16:51:59 using OpenFAST, compiled on Jun  3 2024 at 16:15:14 as a 64-bit application using double precision at commit HEAD-HASH-NOTFOUND
 linked with  NWTC Subroutine Library; ElastoDyn; InflowWind; AeroDyn; ServoDyn

Description from the FAST input file: NREL 5.0 MW Baseline Wind Turbine (Onshore), Linearization with AeroDyn + ED

Simulation information:
   Simulation time:                   406.4500 s
   Rotor Speed:                         1.0001 rad/s
   Azimuth:                             0.0054 rad
   Wind Speed:                          8.0000 m/s
   Number of continuous states:       258
   Number of discrete states:           0
   Number of constraint states:         0
   Number of inputs:                   69
   Number of outputs:                   5
   Jacobians included in this file?    No

Order of continuous states:
   Row/Column Operating Point                                                   Rotating Frame? Derivative Order Description
   ---------- ---------------                                                   --------------- ---------------- -----------
          1    2.082167375509E-001                                                     F               2         ED 1st tower fore-aft bending mode DOF (internal DOF index = DOF_TFA1), m
          2    2.180863025574E-002                                                     F               2         ED 1st tower side-to-side bending mode DOF (internal DOF index = DOF_TSS1), m
          3   -7.288991268558E-005                                                     F               2         ED 2nd tower fore-aft bending mode DOF (internal DOF index = DOF_TFA2), m
          4    1.407491044702E-004                                                     F               2         ED 2nd tower side-to-side bending mode DOF (internal DOF index = DOF_TSS2), m
          5    4.715587806678E+000                                                     F               2         ED Variable speed generator DOF (internal DOF index = DOF_GeAz), rad
          6    2.180173439910E-003                                                     F               2         ED Drivetrain rotational-flexibility DOF (internal DOF index = DOF_DrTr), rad
          7    3.176277281761E+000                                                     T               2         ED 1st flapwise bending-mode DOF of blade 1 (internal DOF index = DOF_BF(1,1)), m
          8    3.351214206409E+000                                                     T               2         ED 1st flapwise bending-mode DOF of blade 2 (internal DOF index = DOF_BF(2,1)), m
          9    3.050077370672E+000                                                     T               2         ED 1st flapwise bending-mode DOF of blade 3 (internal DOF index = DOF_BF(3,1)), m
         10    8.307703237439E-002                                                     T               2         ED 1st edgewise bending-mode DOF of blade 1 (internal DOF index = DOF_BE(1,1)), m
         11   -3.113137552150E-001                                                     T               2         ED 1st edgewise bending-mode DOF of blade 2 (internal DOF index = DOF_BE(2,1)), m
         12    4.952520768711E-001                                                     T               2         ED 1st edgewise bending-mode DOF of blade 3 (internal DOF index = DOF_BE(3,1)), m
         13    5.575139957478E-002                                                     T               2         ED 2nd flapwise bending-mode DOF of blade 1 (internal DOF index = DOF_BF(1,2)), m
         14   -8.537766112508E-003                                                     T               2         ED 2nd flapwise bending-mode DOF of blade 2 (internal DOF index = DOF_BF(2,2)), m
         15    8.499960592763E-002                                                     T               2         ED 2nd flapwise bending-mode DOF of blade 3 (internal DOF index = DOF_BF(3,2)), m
         16    1.078818719853E-004                                                     F               2         ED First time derivative of 1st tower fore-aft bending mode DOF (internal DOF index = DOF_TFA1), m/s
         17   -8.588831189452E-004                                                     F               2         ED First time derivative of 1st tower side-to-side bending mode DOF (internal DOF index = DOF_TSS1), m/s
         18   -2.233280907901E-005                                                     F               2         ED First time derivative of 2nd tower fore-aft bending mode DOF (internal DOF index = DOF_TFA2), m/s
         19   -3.929571000508E-005                                                     F               2         ED First time derivative of 2nd tower side-to-side bending mode DOF (internal DOF index = DOF_TSS2), m/s
         20    1.000240613643E+000                                                     F               2         ED First time derivative of Variable speed generator DOF (internal DOF index = DOF_GeAz), rad/s
         21   -1.430962665242E-004                                                     F               2         ED First time derivative of Drivetrain rotational-flexibility DOF (internal DOF index = DOF_DrTr), rad/s
         22    2.046124846039E-001                                                     T               2         ED First time derivative of 1st flapwise bending-mode DOF of blade 1 (internal DOF index = DOF_BF(1,1)), m/s
         23   -1.069326570431E-001                                                     T               2         ED First time derivative of 1st flapwise bending-mode DOF of blade 2 (internal DOF index = DOF_BF(2,1)), m/s
         24   -1.296648519035E-001                                                     T               2         ED First time derivative of 1st flapwise bending-mode DOF of blade 3 (internal DOF index = DOF_BF(3,1)), m/s
         25   -5.009104341055E-001                                                     T               2         ED First time derivative of 1st edgewise bending-mode DOF of blade 1 (internal DOF index = DOF_BE(1,1)), m/s
         26    2.744641771510E-001                                                     T               2         ED First time derivative of 1st edgewise bending-mode DOF of blade 2 (internal DOF index = DOF_BE(2,1)), m/s
         27    2.434585415213E-001                                                     T               2         ED First time derivative of 1st edgewise bending-mode DOF of blade 3 (internal DOF index = DOF_BE(3,1)), m/s
         28   -6.257294063743E-002                                                     T               2         ED First time derivative of 2nd flapwise bending-mode DOF of blade 1 (internal DOF index = DOF_BF(1,2)), m/s
         29    2.156480510046E-002                                                     T               2         ED First time derivative of 2nd flapwise bending-mode DOF of blade 2 (internal DOF index = DOF_BF(2,2)), m/s
         30    8.939744738495E-002                                                     T               2         ED First time derivative of 2nd flapwise bending-mode DOF of blade 3 (internal DOF index = DOF_BF(3,2)), m/s
         31   -7.783011325098E+000                                                     T               2         AD vind (axial) at blade 1, node 1, m/s
         32    0.000000000000E+000                                                     T               2         AD vind (tangential) at blade 1, node 1, m/s
         33    0.000000000000E+000                                                     T               2         AD vind (axial) at blade 1, node 2, m/s
         34    0.000000000000E+000                                                     T               2         AD vind (tangential) at blade 1, node 2, m/s
         35    0.000000000000E+000                                                     T               2         AD vind (axial) at blade 1, node 3, m/s
         36    0.000000000000E+000                                                     T               2         AD vind (tangential) at blade 1, node 3, m/s
         37    0.000000000000E+000                                                     T               2         AD vind (axial) at blade 1, node 4, m/s
         38    0.000000000000E+000                                                     T               2         AD vind (tangential) at blade 1, node 4, m/s
         39   -2.014823058526E+000                                                     T               2         AD vind (axial) at blade 1, node 5, m/s
         40    9.497093566885E-001                                                     T               2         AD vind (tangential) at blade 1, node 5, m/s
         41   -2.176643526051E+000                                                     T               2         AD vind (axial) at blade 1, node 6, m/s
         42    7.649597786898E-001                                                     T               2         AD vind (tangential) at blade 1, node 6, m/s
         43   -1.996920742715E+000                                                     T               2         AD vind (axial) at blade 1, node 7, m/s
         44    5.853071436252E-001                                                     T               2         AD vind (tangential) at blade 1, node 7, m/s
         45   -1.983100357154E+000                                                     T               2         AD vind (axial) at blade 1, node 8, m/s
         46    4.873078037802E-001                                                     T               2         AD vind (tangential) at blade 1, node 8, m/s
         47   -2.219257422831E+000                                                     T               2         AD vind (axial) at blade 1, node 9, m/s
         48    4.491342814523E-001                                                     T               2         AD vind (tangential) at blade 1, node 9, m/s
         49   -2.293514878628E+000                                                     T               2         AD vind (axial) at blade 1, node 10, m/s
         50    4.008839396318E-001                                                     T               2         AD vind (tangential) at blade 1, node 10, m/s
         51   -2.576472258157E+000                                                     T               2         AD vind (axial) at blade 1, node 11, m/s
         52    3.798532391857E-001                                                     T               2         AD vind (tangential) at blade 1, node 11, m/s
         53   -2.778935156599E+000                                                     T               2         AD vind (axial) at blade 1, node 12, m/s
         54    3.542364022541E-001                                                     T               2         AD vind (tangential) at blade 1, node 12, m/s
         55   -2.635817662146E+000                                                     T               2         AD vind (axial) at blade 1, node 13, m/s
         56    3.131792038762E-001                                                     T               2         AD vind (tangential) at blade 1, node 13, m/s
         57   -2.752529327742E+000                                                     T               2         AD vind (axial) at blade 1, node 14, m/s
         58    2.922912004082E-001                                                     T               2         AD vind (tangential) at blade 1, node 14, m/s
         59   -2.916727961511E+000                                                     T               2         AD vind (axial) at blade 1, node 15, m/s
         60    2.758952126273E-001                                                     T               2         AD vind (tangential) at blade 1, node 15, m/s
         61   -3.178238801868E+000                                                     T               2         AD vind (axial) at blade 1, node 16, m/s
         62    2.670968045468E-001                                                     T               2         AD vind (tangential) at blade 1, node 16, m/s
         63   -3.493600122953E+000                                                     T               2         AD vind (axial) at blade 1, node 17, m/s
         64    2.640785076214E-001                                                     T               2         AD vind (tangential) at blade 1, node 17, m/s
         65   -3.639987365798E+000                                                     T               2         AD vind (axial) at blade 1, node 18, m/s
         66    2.601189448765E-001                                                     T               2         AD vind (tangential) at blade 1, node 18, m/s
         67   -7.920359978912E+000                                                     T               2         AD vind (axial) at blade 1, node 19, m/s
         68    0.000000000000E+000                                                     T               2         AD vind (tangential) at blade 1, node 19, m/s
         69   -7.867236720491E+000                                                     T               2         AD vind (axial) at blade 2, node 1, m/s
         70    0.000000000000E+000                                                     T               2         AD vind (tangential) at blade 2, node 1, m/s
         71    0.000000000000E+000                                                     T               2         AD vind (axial) at blade 2, node 2, m/s
         72    0.000000000000E+000                                                     T               2         AD vind (tangential) at blade 2, node 2, m/s
         73    0.000000000000E+000                                                     T               2         AD vind (axial) at blade 2, node 3, m/s
         74    0.000000000000E+000                                                     T               2         AD vind (tangential) at blade 2, node 3, m/s
         75    0.000000000000E+000                                                     T               2         AD vind (axial) at blade 2, node 4, m/s
         76    0.000000000000E+000                                                     T               2         AD vind (tangential) at blade 2, node 4, m/s
         77   -2.023656313594E+000                                                     T               2         AD vind (axial) at blade 2, node 5, m/s
         78    9.549244992848E-001                                                     T               2         AD vind (tangential) at blade 2, node 5, m/s
         79   -2.183680771462E+000                                                     T               2         AD vind (axial) at blade 2, node 6, m/s
         80    7.678555418049E-001                                                     T               2         AD vind (tangential) at blade 2, node 6, m/s
         81   -2.001243051987E+000                                                     T               2         AD vind (axial) at blade 2, node 7, m/s
         82    5.867663563680E-001                                                     T               2         AD vind (tangential) at blade 2, node 7, m/s
         83   -1.985622456019E+000                                                     T               2         AD vind (axial) at blade 2, node 8, m/s
         84    4.880161830945E-001                                                     T               2         AD vind (tangential) at blade 2, node 8, m/s
         85   -2.220554973005E+000                                                     T               2         AD vind (axial) at blade 2, node 9, m/s
         86    4.494333733097E-001                                                     T               2         AD vind (tangential) at blade 2, node 9, m/s
         87   -2.293281659331E+000                                                     T               2         AD vind (axial) at blade 2, node 10, m/s
         88    4.008437181348E-001                                                     T               2         AD vind (tangential) at blade 2, node 10, m/s
         89   -2.574554552029E+000                                                     T               2         AD vind (axial) at blade 2, node 11, m/s
         90    3.795669558605E-001                                                     T               2         AD vind (tangential) at blade 2, node 11, m/s
         91   -2.774598414642E+000                                                     T               2         AD vind (axial) at blade 2, node 12, m/s
         92    3.537150903853E-001                                                     T               2         AD vind (tangential) at blade 2, node 12, m/s
         93   -2.628963659277E+000                                                     T               2         AD vind (axial) at blade 2, node 13, m/s
         94    3.124241062615E-001                                                     T               2         AD vind (tangential) at blade 2, node 13, m/s
         95   -2.741844111534E+000                                                     T               2         AD vind (axial) at blade 2, node 14, m/s
         96    2.913529868348E-001                                                     T               2         AD vind (tangential) at blade 2, node 14, m/s
         97   -2.901026255283E+000                                                     T               2         AD vind (axial) at blade 2, node 15, m/s
         98    2.748522467021E-001                                                     T               2         AD vind (tangential) at blade 2, node 15, m/s
         99   -3.157014810067E+000                                                     T               2         AD vind (axial) at blade 2, node 16, m/s
        100    2.661078220288E-001                                                     T               2         AD vind (tangential) at blade 2, node 16, m/s
        101   -3.471359125883E+000                                                     T               2         AD vind (axial) at blade 2, node 17, m/s
        102    2.631214358867E-001                                                     T               2         AD vind (tangential) at blade 2, node 17, m/s
        103   -3.619463248294E+000                                                     T               2         AD vind (axial) at blade 2, node 18, m/s
        104    2.592962796096E-001                                                     T               2         AD vind (tangential) at blade 2, node 18, m/s
        105   -7.913496730427E+000                                                     T               2         AD vind (axial) at blade 2, node 19, m/s
        106    0.000000000000E+000                                                     T               2         AD vind (tangential) at blade 2, node 19, m/s
        107   -7.544643437921E+000                                                     T               2         AD vind (axial) at blade 3, node 1, m/s
        108    0.000000000000E+000                                                     T               2         AD vind (tangential) at blade 3, node 1, m/s
        109    0.000000000000E+000                                                     T               2         AD vind (axial) at blade 3, node 2, m/s
        110    0.000000000000E+000                                                     T               2         AD vind (tangential) at blade 3, node 2, m/s
        111    0.000000000000E+000                                                     T               2         AD vind (axial) at blade 3, node 3, m/s
        112    0.000000000000E+000                                                     T               2         AD vind (tangential) at blade 3, node 3, m/s
        113    0.000000000000E+000                                                     T               2         AD vind (axial) at blade 3, node 4, m/s
        114    0.000000000000E+000                                                     T               2         AD vind (tangential) at blade 3, node 4, m/s
        115   -2.005838170991E+000                                                     T               2         AD vind (axial) at blade 3, node 5, m/s
        116    9.398532459790E-001                                                     T               2         AD vind (tangential) at blade 3, node 5, m/s
        117   -2.165434129840E+000                                                     T               2         AD vind (axial) at blade 3, node 6, m/s
        118    7.595342526706E-001                                                     T               2         AD vind (tangential) at blade 3, node 6, m/s
        119   -1.989487123022E+000                                                     T               2         AD vind (axial) at blade 3, node 7, m/s
        120    5.826629768301E-001                                                     T               2         AD vind (tangential) at blade 3, node 7, m/s
        121   -1.977970426965E+000                                                     T               2         AD vind (axial) at blade 3, node 8, m/s
        122    4.860539501221E-001                                                     T               2         AD vind (tangential) at blade 3, node 8, m/s
        123   -2.214467472817E+000                                                     T               2         AD vind (axial) at blade 3, node 9, m/s
        124    4.485633661269E-001                                                     T               2         AD vind (tangential) at blade 3, node 9, m/s
        125   -2.288557328831E+000                                                     T               2         AD vind (axial) at blade 3, node 10, m/s
        126    4.007982728905E-001                                                     T               2         AD vind (tangential) at blade 3, node 10, m/s
        127   -2.568907487538E+000                                                     T               2         AD vind (axial) at blade 3, node 11, m/s
        128    3.800314505835E-001                                                     T               2         AD vind (tangential) at blade 3, node 11, m/s
        129   -2.767367681101E+000                                                     T               2         AD vind (axial) at blade 3, node 12, m/s
        130    3.546206105736E-001                                                     T               2         AD vind (tangential) at blade 3, node 12, m/s
        131   -2.621978112730E+000                                                     T               2         AD vind (axial) at blade 3, node 13, m/s
        132    3.136272217349E-001                                                     T               2         AD vind (tangential) at blade 3, node 13, m/s
        133   -2.733939298671E+000                                                     T               2         AD vind (axial) at blade 3, node 14, m/s
        134    2.928133520696E-001                                                     T               2         AD vind (tangential) at blade 3, node 14, m/s
        135   -2.892751119309E+000                                                     T               2         AD vind (axial) at blade 3, node 15, m/s
        136    2.765376245822E-001                                                     T               2         AD vind (tangential) at blade 3, node 15, m/s
        137   -3.147880563651E+000                                                     T               2         AD vind (axial) at blade 3, node 16, m/s
        138    2.680159675062E-001                                                     T               2         AD vind (tangential) at blade 3, node 16, m/s
        139   -3.462933681840E+000                                                     T               2         AD vind (axial) at blade 3, node 17, m/s
        140    2.651262383213E-001                                                     T               2         AD vind (tangential) at blade 3, node 17, m/s
        141   -3.614128526389E+000                                                     T               2         AD vind (axial) at blade 3, node 18, m/s
        142    2.610401707643E-001                                                     T               2         AD vind (tangential) at blade 3, node 18, m/s
        143   -7.910238575765E+000                                                     T               2         AD vind (axial) at blade 3, node 19, m/s
        144    0.000000000000E+000                                                     T               2         AD vind (tangential) at blade 3, node 19, m/s
        145   -3.101183137550E+000                                                     T               2         AD First time derivative of vind (axial) at blade 1, node 1, m/s/s
        146    0.000000000000E+000                                                     T               2         AD First time derivative of vind (tangential) at blade 1, node 1, m/s/s
        147    0.000000000000E+000                                                     T               2         AD First time derivative of vind (axial) at blade 1, node 2, m/s/s
        148    0.000000000000E+000                                                     T               2         AD First time derivative of vind (tangential) at blade 1, node 2, m/s/s
        149    0.000000000000E+000                                                     T               2         AD First time derivative of vind (axial) at blade 1, node 3, m/s/s
        150    0.000000000000E+000                                                     T               2         AD First time derivative of vind (tangential) at blade 1, node 3, m/s/s
        151    0.000000000000E+000                                                     T               2         AD First time derivative of vind (axial) at blade 1, node 4, m/s/s
        152    0.000000000000E+000                                                     T               2         AD First time derivative of vind (tangential) at blade 1, node 4, m/s/s
        153   -8.058741581554E-001                                                     T               2         AD First time derivative of vind (axial) at blade 1, node 5, m/s/s
        154    3.793265106031E-001                                                     T               2         AD First time derivative of vind (tangential) at blade 1, node 5, m/s/s
        155   -8.700700972964E-001                                                     T               2         AD First time derivative of vind (axial) at blade 1, node 6, m/s/s
        156    3.056136055012E-001                                                     T               2         AD First time derivative of vind (tangential) at blade 1, node 6, m/s/s
        157   -7.983313760074E-001                                                     T               2         AD First time derivative of vind (axial) at blade 1, node 7, m/s/s
        158    2.339300472084E-001                                                     T               2         AD First time derivative of vind (tangential) at blade 1, node 7, m/s/s
        159   -7.929213759703E-001                                                     T               2         AD First time derivative of vind (axial) at blade 1, node 8, m/s/s
        160    1.948266138919E-001                                                     T               2         AD First time derivative of vind (tangential) at blade 1, node 8, m/s/s
        161   -8.873924855580E-001                                                     T               2         AD First time derivative of vind (axial) at blade 1, node 9, m/s/s
        162    1.796111483147E-001                                                     T               2         AD First time derivative of vind (tangential) at blade 1, node 9, m/s/s
        163   -9.170392856783E-001                                                     T               2         AD First time derivative of vind (axial) at blade 1, node 10, m/s/s
        164    1.603531696485E-001                                                     T               2         AD First time derivative of vind (tangential) at blade 1, node 10, m/s/s
        165   -1.029928069653E+000                                                     T               2         AD First time derivative of vind (axial) at blade 1, node 11, m/s/s
        166    1.519708133281E-001                                                     T               2         AD First time derivative of vind (tangential) at blade 1, node 11, m/s/s
        167   -1.110403504239E+000                                                     T               2         AD First time derivative of vind (axial) at blade 1, node 12, m/s/s
        168    1.417546169673E-001                                                     T               2         AD First time derivative of vind (tangential) at blade 1, node 12, m/s/s
        169   -1.052733851098E+000                                                     T               2         AD First time derivative of vind (axial) at blade 1, node 13, m/s/s
        170    1.253502485356E-001                                                     T               2         AD First time derivative of vind (tangential) at blade 1, node 13, m/s/s