
Linearized model: Predictions were generated on 27-Feb-2025 at 19:39:48 using OpenFAST, compiled on Feb 27 2025 at 18:00:14 as a 64-bit application using double precision at commit HEAD-HASH-NOTFOUND
 linked with  NWTC Subroutine Library; ElastoDyn; InflowWind; AeroDyn; ServoDyn

Description from the FAST input file: NREL 5.0 MW Baseline Wind Turbine (Onshore), Linearization with AeroDyn + ED

Simulation information:
   Simulation time:                    65.0900 s
   Rotor Speed:                         1.0001 rad/s
   Azimuth:                             4.1953 rad
   Wind Speed:                          8.0000 m/s
   Number of continuous states:       258
   Number of discrete states:           0
   Number of constraint states:         0
   Number of inputs:                   69
   Number of outputs:                   5
   Jacobians included in this file?    No

Order of continuous states:
   Row/Column Operating Point                                                   Rotating Frame? Derivative Order Description
   ---------- ---------------                                                   --------------- ---------------- -----------
          1    2.082510690608E-001                                                     F               2         ED 1st tower fore-aft bending mode DOF (internal DOF index = DOF_TFA1), m
          2    2.468135362175E-002                                                     F               2         ED 1st tower side-to-side bending mode DOF (internal DOF index = DOF_TSS1), m
          3   -7.231050854789E-005                                                     F               2         ED 2nd tower fore-aft bending mode DOF (internal DOF index = DOF_TFA2), m
          4    1.397725817122E-004                                                     F               2         ED 2nd tower side-to-side bending mode DOF (internal DOF index = DOF_TSS2), m
          5    2.622301611837E+000                                                     F               2         ED Variable speed generator DOF (internal DOF index = DOF_GeAz), rad
          6    2.182582249940E-003                                                     F               2         ED Drivetrain rotational-flexibility DOF (internal DOF index = DOF_DrTr), rad
          7    3.048407934702E+000                                                     T               2         ED 1st flapwise bending-mode DOF of blade 1 (internal DOF index = DOF_BF(1,1)), m
          8    3.176958006784E+000                                                     T               2         ED 1st flapwise bending-mode DOF of blade 2 (internal DOF index = DOF_BF(2,1)), m
          9    3.352062495052E+000                                                     T               2         ED 1st flapwise bending-mode DOF of blade 3 (internal DOF index = DOF_BF(3,1)), m
         10    4.962887586028E-001                                                     T               2         ED 1st edgewise bending-mode DOF of blade 1 (internal DOF index = DOF_BE(1,1)), m
         11    8.172779502833E-002                                                     T               2         ED 1st edgewise bending-mode DOF of blade 2 (internal DOF index = DOF_BE(2,1)), m
         12   -3.105267951499E-001                                                     T               2         ED 1st edgewise bending-mode DOF of blade 3 (internal DOF index = DOF_BE(3,1)), m
         13    8.529433860364E-002                                                     T               2         ED 2nd flapwise bending-mode DOF of blade 1 (internal DOF index = DOF_BF(1,2)), m
         14    5.560276776908E-002                                                     T               2         ED 2nd flapwise bending-mode DOF of blade 2 (internal DOF index = DOF_BF(2,2)), m
         15   -8.459233794122E-003                                                     T               2         ED 2nd flapwise bending-mode DOF of blade 3 (internal DOF index = DOF_BF(3,2)), m
         16    1.257568823106E-004                                                     F               2         ED First time derivative of 1st tower fore-aft bending mode DOF (internal DOF index = DOF_TFA1), m/s
         17    2.783656617597E-003                                                     F               2         ED First time derivative of 1st tower side-to-side bending mode DOF (internal DOF index = DOF_TSS1), m/s
         18   -2.830803043137E-005                                                     F               2         ED First time derivative of 2nd tower fore-aft bending mode DOF (internal DOF index = DOF_TFA2), m/s
         19   -4.104515918717E-005                                                     F               2         ED First time derivative of 2nd tower side-to-side bending mode DOF (internal DOF index = DOF_TSS2), m/s
         20    1.000228522514E+000                                                     F               2         ED First time derivative of Variable speed generator DOF (internal DOF index = DOF_GeAz), rad/s
         21   -8.894656737049E-005                                                     F               2         ED First time derivative of Drivetrain rotational-flexibility DOF (internal DOF index = DOF_DrTr), rad/s
         22   -1.347582203584E-001                                                     T               2         ED First time derivative of 1st flapwise bending-mode DOF of blade 1 (internal DOF index = DOF_BF(1,1)), m/s
         23    2.078115493128E-001                                                     T               2         ED First time derivative of 1st flapwise bending-mode DOF of blade 2 (internal DOF index = DOF_BF(2,1)), m/s
         24   -1.090231207041E-001                                                     T               2         ED First time derivative of 1st flapwise bending-mode DOF of blade 3 (internal DOF index = DOF_BF(3,1)), m/s
         25    2.385732628480E-001                                                     T               2         ED First time derivative of 1st edgewise bending-mode DOF of blade 1 (internal DOF index = DOF_BE(1,1)), m/s
         26   -5.020669111572E-001                                                     T               2         ED First time derivative of 1st edgewise bending-mode DOF of blade 2 (internal DOF index = DOF_BE(2,1)), m/s
         27    2.786576286588E-001                                                     T               2         ED First time derivative of 1st edgewise bending-mode DOF of blade 3 (internal DOF index = DOF_BE(3,1)), m/s
         28    8.756703229134E-002                                                     T               2         ED First time derivative of 2nd flapwise bending-mode DOF of blade 1 (internal DOF index = DOF_BF(1,2)), m/s
         29   -6.451772634417E-002                                                     T               2         ED First time derivative of 2nd flapwise bending-mode DOF of blade 2 (internal DOF index = DOF_BF(2,2)), m/s
         30    2.183982563397E-002                                                     T               2         ED First time derivative of 2nd flapwise bending-mode DOF of blade 3 (internal DOF index = DOF_BF(3,2)), m/s
         31   -7.544881251551E+000                                                     T               2         AD vind (axial) at blade 1, node 1, m/s
         32    0.000000000000E+000                                                     T               2         AD vind (tangential) at blade 1, node 1, m/s
         33    0.000000000000E+000                                                     T               2         AD vind (axial) at blade 1, node 2, m/s
         34    0.000000000000E+000                                                     T               2         AD vind (tangential) at blade 1, node 2, m/s
         35    0.000000000000E+000                                                     T               2         AD vind (axial) at blade 1, node 3, m/s
         36    0.000000000000E+000                                                     T               2         AD vind (tangential) at blade 1, node 3, m/s
         37    0.000000000000E+000                                                     T               2         AD vind (axial) at blade 1, node 4, m/s
         38    0.000000000000E+000                                                     T               2         AD vind (tangential) at blade 1, node 4, m/s
         39   -2.005972737718E+000                                                     T               2         AD vind (axial) at blade 1, node 5, m/s
         40    9.398761814551E-001                                                     T               2         AD vind (tangential) at blade 1, node 5, m/s
         41   -2.165486954927E+000                                                     T               2         AD vind (axial) at blade 1, node 6, m/s
         42    7.595127678832E-001                                                     T               2         AD vind (tangential) at blade 1, node 6, m/s
         43   -1.989521502267E+000                                                     T               2         AD vind (axial) at blade 1, node 7, m/s
         44    5.826329434166E-001                                                     T               2         AD vind (tangential) at blade 1, node 7, m/s
         45   -1.978005823745E+000                                                     T               2         AD vind (axial) at blade 1, node 8, m/s
         46    4.860242259660E-001                                                     T               2         AD vind (tangential) at blade 1, node 8, m/s
         47   -2.214563443993E+000                                                     T               2         AD vind (axial) at blade 1, node 9, m/s
         48    4.485406705760E-001                                                     T               2         AD vind (tangential) at blade 1, node 9, m/s
         49   -2.288679105327E+000                                                     T               2         AD vind (axial) at blade 1, node 10, m/s
         50    4.007799140888E-001                                                     T               2         AD vind (tangential) at blade 1, node 10, m/s
         51   -2.569120713781E+000                                                     T               2         AD vind (axial) at blade 1, node 11, m/s
         52    3.800191340544E-001                                                     T               2         AD vind (tangential) at blade 1, node 11, m/s
         53   -2.767599095225E+000                                                     T               2         AD vind (axial) at blade 1, node 12, m/s
         54    3.546080567026E-001                                                     T               2         AD vind (tangential) at blade 1, node 12, m/s
         55   -2.622285689752E+000                                                     T               2         AD vind (axial) at blade 1, node 13, m/s
         56    3.136245494506E-001                                                     T               2         AD vind (tangential) at blade 1, node 13, m/s
         57   -2.734311525527E+000                                                     T               2         AD vind (axial) at blade 1, node 14, m/s
         58    2.928158061490E-001                                                     T               2         AD vind (tangential) at blade 1, node 14, m/s
         59   -2.893161784934E+000                                                     T               2         AD vind (axial) at blade 1, node 15, m/s
         60    2.765487996980E-001                                                     T               2         AD vind (tangential) at blade 1, node 15, m/s
         61   -3.148192274150E+000                                                     T               2         AD vind (axial) at blade 1, node 16, m/s
         62    2.680375724406E-001                                                     T               2         AD vind (tangential) at blade 1, node 16, m/s
         63   -3.463100798130E+000                                                     T               2         AD vind (axial) at blade 1, node 17, m/s
         64    2.651659605725E-001                                                     T               2         AD vind (tangential) at blade 1, node 17, m/s
         65   -3.614234814248E+000                                                     T               2         AD vind (axial) at blade 1, node 18, m/s
         66    2.610977628062E-001                                                     T               2         AD vind (tangential) at blade 1, node 18, m/s
         67   -7.911324011083E+000                                                     T               2         AD vind (axial) at blade 1, node 19, m/s
         68    0.000000000000E+000                                                     T               2         AD vind (tangential) at blade 1, node 19, m/s
         69   -7.783033071703E+000                                                     T               2         AD vind (axial) at blade 2, node 1, m/s
         70    0.000000000000E+000                                                     T               2         AD vind (tangential) at blade 2, node 1, m/s
         71    0.000000000000E+000                                                     T               2         AD vind (axial) at blade 2, node 2, m/s
         72    0.000000000000E+000                                                     T               2         AD vind (tangential) at blade 2, node 2, m/s
         73    0.000000000000E+000                                                     T               2         AD vind (axial) at blade 2, node 3, m/s
         74    0.000000000000E+000                                                     T               2         AD vind (tangential) at blade 2, node 3, m/s
         75    0.000000000000E+000                                                     T               2         AD vind (axial) at blade 2, node 4, m/s
         76    0.000000000000E+000                                                     T               2         AD vind (tangential) at blade 2, node 4, m/s
         77   -2.015463444214E+000                                                     T               2         AD vind (axial) at blade 2, node 5, m/s
         78    9.496543433984E-001                                                     T               2         AD vind (tangential) at blade 2, node 5, m/s
         79   -2.176692045881E+000                                                     T               2         AD vind (axial) at blade 2, node 6, m/s
         80    7.647880239162E-001                                                     T               2         AD vind (tangential) at blade 2, node 6, m/s
         81   -1.996914375957E+000                                                     T               2         AD vind (axial) at blade 2, node 7, m/s
         82    5.851755190735E-001                                                     T               2         AD vind (tangential) at blade 2, node 7, m/s
         83   -1.983113228966E+000                                                     T               2         AD vind (axial) at blade 2, node 8, m/s
         84    4.872072074190E-001                                                     T               2         AD vind (tangential) at blade 2, node 8, m/s
         85   -2.219409671839E+000                                                     T               2         AD vind (axial) at blade 2, node 9, m/s
         86    4.490627656916E-001                                                     T               2         AD vind (tangential) at blade 2, node 9, m/s
         87   -2.293721521998E+000                                                     T               2         AD vind (axial) at blade 2, node 10, m/s
         88    4.008277447155E-001                                                     T               2         AD vind (tangential) at blade 2, node 10, m/s
         89   -2.576857675202E+000                                                     T               2         AD vind (axial) at blade 2, node 11, m/s
         90    3.798111445146E-001                                                     T               2         AD vind (tangential) at blade 2, node 11, m/s
         91   -2.779438972985E+000                                                     T               2         AD vind (axial) at blade 2, node 12, m/s
         92    3.541998569522E-001                                                     T               2         AD vind (tangential) at blade 2, node 12, m/s
         93   -2.636357502389E+000                                                     T               2         AD vind (axial) at blade 2, node 13, m/s
         94    3.131528961968E-001                                                     T               2         AD vind (tangential) at blade 2, node 13, m/s
         95   -2.753173661546E+000                                                     T               2         AD vind (axial) at blade 2, node 14, m/s
         96    2.922673159405E-001                                                     T               2         AD vind (tangential) at blade 2, node 14, m/s
         97   -2.917478813233E+000                                                     T               2         AD vind (axial) at blade 2, node 15, m/s
         98    2.758704550833E-001                                                     T               2         AD vind (tangential) at blade 2, node 15, m/s
         99   -3.179042127265E+000                                                     T               2         AD vind (axial) at blade 2, node 16, m/s
        100    2.670665542483E-001                                                     T               2         AD vind (tangential) at blade 2, node 16, m/s
        101   -3.494241969412E+000                                                     T               2         AD vind (axial) at blade 2, node 17, m/s
        102    2.640475209099E-001                                                     T               2         AD vind (tangential) at blade 2, node 17, m/s
        103   -3.640381617567E+000                                                     T               2         AD vind (axial) at blade 2, node 18, m/s
        104    2.600845328553E-001                                                     T               2         AD vind (tangential) at blade 2, node 18, m/s
        105   -7.920004400325E+000                                                     T               2         AD vind (axial) at blade 2, node 19, m/s
        106    0.000000000000E+000                                                     T               2         AD vind (tangential) at blade 2, node 19, m/s
        107   -7.867074396055E+000                                                     T               2         AD vind (axial) at blade 3, node 1, m/s
        108    0.000000000000E+000                                                     T               2         AD vind (tangential) at blade 3, node 1, m/s
        109    0.000000000000E+000                                                     T               2         AD vind (axial) at blade 3, node 2, m/s
        110    0.000000000000E+000                                                     T               2         AD vind (tangential) at blade 3, node 2, m/s
        111    0.000000000000E+000                                                     T               2         AD vind (axial) at blade 3, node 3, m/s
        112    0.000000000000E+000                                                     T               2         AD vind (tangential) at blade 3, node 3, m/s
        113    0.000000000000E+000                                                     T               2         AD vind (axial) at blade 3, node 4, m/s
        114    0.000000000000E+000                                                     T               2         AD vind (tangential) at blade 3, node 4, m/s
        115   -2.023792887192E+000                                                     T               2         AD vind (axial) at blade 3, node 5, m/s
        116    9.548956029235E-001                                                     T               2         AD vind (tangential) at blade 3, node 5, m/s
        117   -2.183688690104E+000                                                     T               2         AD vind (axial) at blade 3, node 6, m/s
        118    7.677884901437E-001                                                     T               2         AD vind (tangential) at blade 3, node 6, m/s
        119   -2.001229123790E+000                                                     T               2         AD vind (axial) at blade 3, node 7, m/s
        120    5.867035491252E-001                                                     T               2         AD vind (tangential) at blade 3, node 7, m/s
        121   -1.985619514795E+000                                                     T               2         AD vind (axial) at blade 3, node 8, m/s
        122    4.879611513170E-001                                                     T               2         AD vind (tangential) at blade 3, node 8, m/s
        123   -2.220629987898E+000                                                     T               2         AD vind (axial) at blade 3, node 9, m/s
        124    4.493889774509E-001                                                     T               2         AD vind (tangential) at blade 3, node 9, m/s
        125   -2.293395202006E+000                                                     T               2         AD vind (axial) at blade 3, node 10, m/s
        126    4.008050082276E-001                                                     T               2         AD vind (tangential) at blade 3, node 10, m/s
        127   -2.574789911279E+000                                                     T               2         AD vind (axial) at blade 3, node 11, m/s
        128    3.795344772700E-001                                                     T               2         AD vind (tangential) at blade 3, node 11, m/s
        129   -2.774931116571E+000                                                     T               2         AD vind (axial) at blade 3, node 12, m/s
        130    3.536846650974E-001                                                     T               2         AD vind (tangential) at blade 3, node 12, m/s
        131   -2.629328354408E+000                                                     T               2         AD vind (axial) at blade 3, node 13, m/s
        132    3.123991089799E-001                                                     T               2         AD vind (tangential) at blade 3, node 13, m/s
        133   -2.742294976420E+000                                                     T               2         AD vind (axial) at blade 3, node 14, m/s
        134    2.913285156841E-001                                                     T               2         AD vind (tangential) at blade 3, node 14, m/s
        135   -2.901564874998E+000                                                     T               2         AD vind (axial) at blade 3, node 15, m/s
        136    2.748261038919E-001                                                     T               2         AD vind (tangential) at blade 3, node 15, m/s
        137   -3.157613739713E+000                                                     T               2         AD vind (axial) at blade 3, node 16, m/s
        138    2.660764041590E-001                                                     T               2         AD vind (tangential) at blade 3, node 16, m/s
        139   -3.471836480167E+000                                                     T               2         AD vind (axial) at blade 3, node 17, m/s
        140    2.630892287530E-001                                                     T               2         AD vind (tangential) at blade 3, node 17, m/s
        141   -3.619747745887E+000                                                     T               2         AD vind (axial) at blade 3, node 18, m/s
        142    2.592631232968E-001                                                     T               2         AD vind (tangential) at blade 3, node 18, m/s
        143   -7.913129512306E+000                                                     T               2         AD vind (axial) at blade 3, node 19, m/s
        144    0.000000000000E+000                                                     T               2         AD vind (tangential) at blade 3, node 19, m/s
        145   -3.040153907395E+000                                                     T               2         AD First time derivative of vind (axial) at blade 1, node 1, m/s/s
        146    0.000000000000E+000                                                     T               2         AD First time derivative of vind (tangential) at blade 1, node 1, m/s/s
        147    0.000000000000E+000                                                     T               2         AD First time derivative of vind (axial) at blade 1, node 2, m/s/s
        148    0.000000000000E+000                                                     T               2         AD First time derivative of vind (tangential) at blade 1, node 2, m/s/s
        149    0.000000000000E+000                                                     T               2         AD First time derivative of vind (axial) at blade 1, node 3, m/s/s
        150    0.000000000000E+000                                                     T               2         AD First time derivative of vind (tangential) at blade 1, node 3, m/s/s
        151    0.000000000000E+000                                                     T               2         AD First time derivative of vind (axial) at blade 1, node 4, m/s/s
        152    0.000000000000E+000                                                     T               2         AD First time derivative of vind (tangential) at blade 1, node 4, m/s/s
        153   -8.044731993735E-001                                                     T               2         AD First time derivative of vind (axial) at blade 1, node 5, m/s/s
        154    3.765927532565E-001                                                     T               2         AD First time derivative of vind (tangential) at blade 1, node 5, m/s/s
        155   -8.671100081008E-001                                                     T               2         AD First time derivative of vind (axial) at blade 1, node 6, m/s/s
        156    3.039296158203E-001                                                     T               2         AD First time derivative of vind (tangential) at blade 1, node 6, m/s/s
        157   -7.963112664052E-001                                                     T               2         AD First time derivative of vind (axial) at blade 1, node 7, m/s/s
        158    2.330596270212E-001                                                     T               2         AD First time derivative of vind (tangential) at blade 1, node 7, m/s/s
        159   -7.915284493019E-001                                                     T               2         AD First time derivative of vind (axial) at blade 1, node 8, m/s/s
        160    1.943613106850E-001                                                     T               2         AD First time derivative of vind (tangential) at blade 1, node 8, m/s/s
        161   -8.862399474282E-001                                                     T               2         AD First time derivative of vind (axial) at blade 1, node 9, m/s/s
        162    1.793468582884E-001                                                     T               2         AD First time derivative of vind (tangential) at blade 1, node 9, m/s/s
        163   -9.158955512369E-001                                                     T               2         AD First time derivative of vind (axial) at blade 1, node 10, m/s/s
        164    1.602111470133E-001                                                     T               2         AD First time derivative of vind (tangential) at blade 1, node 10, m/s/s
        165   -1.028405745044E+000                                                     T               2         AD First time derivative of vind (axial) at blade 1, node 11, m/s/s
        166    1.518877937532E-001                                                     T               2         AD First time derivative of vind (tangential) at blade 1, node 11, m/s/s
        167   -1.108188617631E+000                                                     T               2         AD First time derivative of vind (axial) at blade 1, node 12, m/s/s
        168    1.416990716615E-001                                                     T               2         AD First time derivative of vind (tangential) at blade 1, node 12, m/s/s
        169   -1.050165777684E+000                                                     T               2         AD First time derivative of vind (axial) at blade 1, node 13, m/s/s
        170    1.252961447843E-001                                                     T               2         AD First time derivative of vind (tangential) at blade 1, node 13, m/s/s