
Linearized model: Predictions were generated on 19-Sep-2024 at 15:25:19 using OpenFAST, compiled on Sep 19 2024 at 15:09:19 as a 64-bit application using double precision at commit -128-NOTFOUND
 linked with  NWTC Subroutine Library; ElastoDyn; InflowWind; AeroDyn; ServoDyn

Description from the FAST input file: NREL 5.0 MW Baseline Wind Turbine (Onshore), Linearization with AeroDyn + ED

Simulation information:
   Simulation time:                   236.8100 s
   Rotor Speed:                         0.9982 rad/s
   Azimuth:                             0.0010 rad
   Wind Speed:                          8.0000 m/s
   Number of continuous states:       258
   Number of discrete states:           0
   Number of constraint states:         0
   Number of inputs:                   69
   Number of outputs:                   5
   Jacobians included in this file?    No

Order of continuous states:
   Row/Column Operating Point                                                   Rotating Frame? Derivative Order Description
   ---------- ---------------                                                   --------------- ---------------- -----------
          1    2.079508953637E-001                                                     F               2         ED 1st tower fore-aft bending mode DOF (internal DOF index = DOF_TFA1), m
          2    2.182145092524E-002                                                     F               2         ED 1st tower side-to-side bending mode DOF (internal DOF index = DOF_TSS1), m
          3   -7.227077141664E-005                                                     F               2         ED 2nd tower fore-aft bending mode DOF (internal DOF index = DOF_TFA2), m
          4    1.412164496511E-004                                                     F               2         ED 2nd tower side-to-side bending mode DOF (internal DOF index = DOF_TSS2), m
          5    4.711236098310E+000                                                     F               2         ED Variable speed generator DOF (internal DOF index = DOF_GeAz), rad
          6    2.183413376588E-003                                                     F               2         ED Drivetrain rotational-flexibility DOF (internal DOF index = DOF_DrTr), rad
          7    3.171167101101E+000                                                     T               2         ED 1st flapwise bending-mode DOF of blade 1 (internal DOF index = DOF_BF(1,1)), m
          8    3.347449658282E+000                                                     T               2         ED 1st flapwise bending-mode DOF of blade 2 (internal DOF index = DOF_BF(2,1)), m
          9    3.045716651023E+000                                                     T               2         ED 1st flapwise bending-mode DOF of blade 3 (internal DOF index = DOF_BF(3,1)), m
         10    8.399825915910E-002                                                     T               2         ED 1st edgewise bending-mode DOF of blade 1 (internal DOF index = DOF_BE(1,1)), m
         11   -3.125263231053E-001                                                     T               2         ED 1st edgewise bending-mode DOF of blade 2 (internal DOF index = DOF_BE(2,1)), m
         12    4.942796040670E-001                                                     T               2         ED 1st edgewise bending-mode DOF of blade 3 (internal DOF index = DOF_BE(3,1)), m
         13    5.579793412011E-002                                                     T               2         ED 2nd flapwise bending-mode DOF of blade 1 (internal DOF index = DOF_BF(1,2)), m
         14   -8.771757771745E-003                                                     T               2         ED 2nd flapwise bending-mode DOF of blade 2 (internal DOF index = DOF_BF(2,2)), m
         15    8.475189870155E-002                                                     T               2         ED 2nd flapwise bending-mode DOF of blade 3 (internal DOF index = DOF_BF(3,2)), m
         16    8.574186650697E-005                                                     F               2         ED First time derivative of 1st tower fore-aft bending mode DOF (internal DOF index = DOF_TFA1), m/s
         17   -1.187152954952E-003                                                     F               2         ED First time derivative of 1st tower side-to-side bending mode DOF (internal DOF index = DOF_TSS1), m/s
         18   -2.496797772872E-005                                                     F               2         ED First time derivative of 2nd tower fore-aft bending mode DOF (internal DOF index = DOF_TFA2), m/s
         19   -3.605023224688E-005                                                     F               2         ED First time derivative of 2nd tower side-to-side bending mode DOF (internal DOF index = DOF_TSS2), m/s
         20    9.983430261666E-001                                                     F               2         ED First time derivative of Variable speed generator DOF (internal DOF index = DOF_GeAz), rad/s
         21   -1.284182301600E-004                                                     F               2         ED First time derivative of Drivetrain rotational-flexibility DOF (internal DOF index = DOF_DrTr), rad/s
         22    2.057359009095E-001                                                     T               2         ED First time derivative of 1st flapwise bending-mode DOF of blade 1 (internal DOF index = DOF_BF(1,1)), m/s
         23   -1.069103952765E-001                                                     T               2         ED First time derivative of 1st flapwise bending-mode DOF of blade 2 (internal DOF index = DOF_BF(2,1)), m/s
         24   -1.347570126273E-001                                                     T               2         ED First time derivative of 1st flapwise bending-mode DOF of blade 3 (internal DOF index = DOF_BF(3,1)), m/s
         25   -4.989980849898E-001                                                     T               2         ED First time derivative of 1st edgewise bending-mode DOF of blade 1 (internal DOF index = DOF_BE(1,1)), m/s
         26    2.783819359907E-001                                                     T               2         ED First time derivative of 1st edgewise bending-mode DOF of blade 2 (internal DOF index = DOF_BE(2,1)), m/s
         27    2.430561731916E-001                                                     T               2         ED First time derivative of 1st edgewise bending-mode DOF of blade 3 (internal DOF index = DOF_BE(3,1)), m/s
         28   -6.330914606217E-002                                                     T               2         ED First time derivative of 2nd flapwise bending-mode DOF of blade 1 (internal DOF index = DOF_BF(1,2)), m/s
         29    2.227289161364E-002                                                     T               2         ED First time derivative of 2nd flapwise bending-mode DOF of blade 2 (internal DOF index = DOF_BF(2,2)), m/s
         30    8.728300962903E-002                                                     T               2         ED First time derivative of 2nd flapwise bending-mode DOF of blade 3 (internal DOF index = DOF_BF(3,2)), m/s
         31   -7.782854737731E+000                                                     T               2         AD vind (axial) at blade 1, node 1, m/s
         32    0.000000000000E+000                                                     T               2         AD vind (tangential) at blade 1, node 1, m/s
         33    0.000000000000E+000                                                     T               2         AD vind (axial) at blade 1, node 2, m/s
         34    0.000000000000E+000                                                     T               2         AD vind (tangential) at blade 1, node 2, m/s
         35    0.000000000000E+000                                                     T               2         AD vind (axial) at blade 1, node 3, m/s
         36    0.000000000000E+000                                                     T               2         AD vind (tangential) at blade 1, node 3, m/s
         37    0.000000000000E+000                                                     T               2         AD vind (axial) at blade 1, node 4, m/s
         38    0.000000000000E+000                                                     T               2         AD vind (tangential) at blade 1, node 4, m/s
         39   -2.011466136430E+000                                                     T               2         AD vind (axial) at blade 1, node 5, m/s
         40    9.500089574263E-001                                                     T               2         AD vind (tangential) at blade 1, node 5, m/s
         41   -2.176321535607E+000                                                     T               2         AD vind (axial) at blade 1, node 6, m/s
         42    7.659916195993E-001                                                     T               2         AD vind (tangential) at blade 1, node 6, m/s
         43   -1.996934705921E+000                                                     T               2         AD vind (axial) at blade 1, node 7, m/s
         44    5.861863390483E-001                                                     T               2         AD vind (tangential) at blade 1, node 7, m/s
         45   -1.982964723888E+000                                                     T               2         AD vind (axial) at blade 1, node 8, m/s
         46    4.880338347490E-001                                                     T               2         AD vind (tangential) at blade 1, node 8, m/s
         47   -2.218031874658E+000                                                     T               2         AD vind (axial) at blade 1, node 9, m/s
         48    4.496850408877E-001                                                     T               2         AD vind (tangential) at blade 1, node 9, m/s
         49   -2.291784842945E+000                                                     T               2         AD vind (axial) at blade 1, node 10, m/s
         50    4.013424333995E-001                                                     T               2         AD vind (tangential) at blade 1, node 10, m/s
         51   -2.573174330104E+000                                                     T               2         AD vind (axial) at blade 1, node 11, m/s
         52    3.802146501579E-001                                                     T               2         AD vind (tangential) at blade 1, node 11, m/s
         53   -2.774339544507E+000                                                     T               2         AD vind (axial) at blade 1, node 12, m/s
         54    3.545478900273E-001                                                     T               2         AD vind (tangential) at blade 1, node 12, m/s
         55   -2.631048337240E+000                                                     T               2         AD vind (axial) at blade 1, node 13, m/s
         56    3.134185817367E-001                                                     T               2         AD vind (tangential) at blade 1, node 13, m/s
         57   -2.746847985012E+000                                                     T               2         AD vind (axial) at blade 1, node 14, m/s
         58    2.925065022206E-001                                                     T               2         AD vind (tangential) at blade 1, node 14, m/s
         59   -2.910130742032E+000                                                     T               2         AD vind (axial) at blade 1, node 15, m/s
         60    2.761137218613E-001                                                     T               2         AD vind (tangential) at blade 1, node 15, m/s
         61   -3.170863610441E+000                                                     T               2         AD vind (axial) at blade 1, node 16, m/s
         62    2.673566503468E-001                                                     T               2         AD vind (tangential) at blade 1, node 16, m/s
         63   -3.487279901862E+000                                                     T               2         AD vind (axial) at blade 1, node 17, m/s
         64    2.643409662083E-001                                                     T               2         AD vind (tangential) at blade 1, node 17, m/s
         65   -3.635418466549E+000                                                     T               2         AD vind (axial) at blade 1, node 18, m/s
         66    2.603831315697E-001                                                     T               2         AD vind (tangential) at blade 1, node 18, m/s
         67   -7.920898978917E+000                                                     T               2         AD vind (axial) at blade 1, node 19, m/s
         68    0.000000000000E+000                                                     T               2         AD vind (tangential) at blade 1, node 19, m/s
         69   -7.867709783009E+000                                                     T               2         AD vind (axial) at blade 2, node 1, m/s
         70    0.000000000000E+000                                                     T               2         AD vind (tangential) at blade 2, node 1, m/s
         71    0.000000000000E+000                                                     T               2         AD vind (axial) at blade 2, node 2, m/s
         72    0.000000000000E+000                                                     T               2         AD vind (tangential) at blade 2, node 2, m/s
         73    0.000000000000E+000                                                     T               2         AD vind (axial) at blade 2, node 3, m/s
         74    0.000000000000E+000                                                     T               2         AD vind (tangential) at blade 2, node 3, m/s
         75    0.000000000000E+000                                                     T               2         AD vind (axial) at blade 2, node 4, m/s
         76    0.000000000000E+000                                                     T               2         AD vind (tangential) at blade 2, node 4, m/s
         77   -2.020272385264E+000                                                     T               2         AD vind (axial) at blade 2, node 5, m/s
         78    9.552058750314E-001                                                     T               2         AD vind (tangential) at blade 2, node 5, m/s
         79   -2.183315357097E+000                                                     T               2         AD vind (axial) at blade 2, node 6, m/s
         80    7.688610336122E-001                                                     T               2         AD vind (tangential) at blade 2, node 6, m/s
         81   -2.001227059581E+000                                                     T               2         AD vind (axial) at blade 2, node 7, m/s
         82    5.876243522274E-001                                                     T               2         AD vind (tangential) at blade 2, node 7, m/s
         83   -1.985467194444E+000                                                     T               2         AD vind (axial) at blade 2, node 8, m/s
         84    4.887233483535E-001                                                     T               2         AD vind (tangential) at blade 2, node 8, m/s
         85   -2.219323972459E+000                                                     T               2         AD vind (axial) at blade 2, node 9, m/s
         86    4.499651313437E-001                                                     T               2         AD vind (tangential) at blade 2, node 9, m/s
         87   -2.291566999287E+000                                                     T               2         AD vind (axial) at blade 2, node 10, m/s
         88    4.012829996938E-001                                                     T               2         AD vind (tangential) at blade 2, node 10, m/s
         89   -2.571314139262E+000                                                     T               2         AD vind (axial) at blade 2, node 11, m/s
         90    3.799075310659E-001                                                     T               2         AD vind (tangential) at blade 2, node 11, m/s
         91   -2.770134812814E+000                                                     T               2         AD vind (axial) at blade 2, node 12, m/s
         92    3.540048194264E-001                                                     T               2         AD vind (tangential) at blade 2, node 12, m/s
         93   -2.624338205354E+000                                                     T               2         AD vind (axial) at blade 2, node 13, m/s
         94    3.126405325780E-001                                                     T               2         AD vind (tangential) at blade 2, node 13, m/s
         95   -2.736373684900E+000                                                     T               2         AD vind (axial) at blade 2, node 14, m/s
         96    2.915430552219E-001                                                     T               2         AD vind (tangential) at blade 2, node 14, m/s
         97   -2.894726905820E+000                                                     T               2         AD vind (axial) at blade 2, node 15, m/s
         98    2.750415965366E-001                                                     T               2         AD vind (tangential) at blade 2, node 15, m/s
         99   -3.149992526433E+000                                                     T               2         AD vind (axial) at blade 2, node 16, m/s
        100    2.663340090273E-001                                                     T               2         AD vind (tangential) at blade 2, node 16, m/s
        101   -3.465281815363E+000                                                     T               2         AD vind (axial) at blade 2, node 17, m/s
        102    2.633478998632E-001                                                     T               2         AD vind (tangential) at blade 2, node 17, m/s
        103   -3.614999323361E+000                                                     T               2         AD vind (axial) at blade 2, node 18, m/s
        104    2.595211020771E-001                                                     T               2         AD vind (tangential) at blade 2, node 18, m/s
        105   -7.913400200585E+000                                                     T               2         AD vind (axial) at blade 2, node 19, m/s
        106    0.000000000000E+000                                                     T               2         AD vind (tangential) at blade 2, node 19, m/s
        107   -7.544019964067E+000                                                     T               2         AD vind (axial) at blade 3, node 1, m/s
        108    0.000000000000E+000                                                     T               2         AD vind (tangential) at blade 3, node 1, m/s
        109    0.000000000000E+000                                                     T               2         AD vind (axial) at blade 3, node 2, m/s
        110    0.000000000000E+000                                                     T               2         AD vind (tangential) at blade 3, node 2, m/s
        111    0.000000000000E+000                                                     T               2         AD vind (axial) at blade 3, node 3, m/s
        112    0.000000000000E+000                                                     T               2         AD vind (tangential) at blade 3, node 3, m/s
        113    0.000000000000E+000                                                     T               2         AD vind (axial) at blade 3, node 4, m/s
        114    0.000000000000E+000                                                     T               2         AD vind (tangential) at blade 3, node 4, m/s
        115   -2.002769358980E+000                                                     T               2         AD vind (axial) at blade 3, node 5, m/s
        116    9.401515145756E-001                                                     T               2         AD vind (tangential) at blade 3, node 5, m/s
        117   -2.164991318175E+000                                                     T               2         AD vind (axial) at blade 3, node 6, m/s
        118    7.604903350218E-001                                                     T               2         AD vind (tangential) at blade 3, node 6, m/s
        119   -1.989453593852E+000                                                     T               2         AD vind (axial) at blade 3, node 7, m/s
        120    5.835038195235E-001                                                     T               2         AD vind (tangential) at blade 3, node 7, m/s
        121   -1.977776149480E+000                                                     T               2         AD vind (axial) at blade 3, node 8, m/s
        122    4.867500928603E-001                                                     T               2         AD vind (tangential) at blade 3, node 8, m/s
        123   -2.213214051590E+000                                                     T               2         AD vind (axial) at blade 3, node 9, m/s
        124    4.490924116637E-001                                                     T               2         AD vind (tangential) at blade 3, node 9, m/s
        125   -2.286779376092E+000                                                     T               2         AD vind (axial) at blade 3, node 10, m/s
        126    4.012351388600E-001                                                     T               2         AD vind (tangential) at blade 3, node 10, m/s
        127   -2.565606222254E+000                                                     T               2         AD vind (axial) at blade 3, node 11, m/s
        128    3.803735494542E-001                                                     T               2         AD vind (tangential) at blade 3, node 11, m/s
        129   -2.762735272008E+000                                                     T               2         AD vind (axial) at blade 3, node 12, m/s
        130    3.549070532153E-001                                                     T               2         AD vind (tangential) at blade 3, node 12, m/s
        131   -2.617276969642E+000                                                     T               2         AD vind (axial) at blade 3, node 13, m/s
        132    3.138488164931E-001                                                     T               2         AD vind (tangential) at blade 3, node 13, m/s
        133   -2.728400258496E+000                                                     T               2         AD vind (axial) at blade 3, node 14, m/s
        134    2.930112812593E-001                                                     T               2         AD vind (tangential) at blade 3, node 14, m/s
        135   -2.886378199633E+000                                                     T               2         AD vind (axial) at blade 3, node 15, m/s
        136    2.767405077202E-001                                                     T               2         AD vind (tangential) at blade 3, node 15, m/s
        137   -3.140675014296E+000                                                     T               2         AD vind (axial) at blade 3, node 16, m/s
        138    2.682619690848E-001                                                     T               2         AD vind (tangential) at blade 3, node 16, m/s
        139   -3.456427831706E+000                                                     T               2         AD vind (axial) at blade 3, node 17, m/s
        140    2.653962953885E-001                                                     T               2         AD vind (tangential) at blade 3, node 17, m/s
        141   -3.609250656738E+000                                                     T               2         AD vind (axial) at blade 3, node 18, m/s
        142    2.613249999360E-001                                                     T               2         AD vind (tangential) at blade 3, node 18, m/s
        143   -7.910856154542E+000                                                     T               2         AD vind (axial) at blade 3, node 19, m/s
        144    0.000000000000E+000                                                     T               2         AD vind (tangential) at blade 3, node 19, m/s
        145   -3.101116883107E+000                                                     T               2         AD First time derivative of vind (axial) at blade 1, node 1, m/s/s
        146    0.000000000000E+000                                                     T               2         AD First time derivative of vind (tangential) at blade 1, node 1, m/s/s
        147    0.000000000000E+000                                                     T               2         AD First time derivative of vind (axial) at blade 1, node 2, m/s/s
        148    0.000000000000E+000                                                     T               2         AD First time derivative of vind (tangential) at blade 1, node 2, m/s/s
        149    0.000000000000E+000                                                     T               2         AD First time derivative of vind (axial) at blade 1, node 3, m/s/s
        150    0.000000000000E+000                                                     T               2         AD First time derivative of vind (tangential) at blade 1, node 3, m/s/s
        151    0.000000000000E+000                                                     T               2         AD First time derivative of vind (axial) at blade 1, node 4, m/s/s
        152    0.000000000000E+000                                                     T               2         AD First time derivative of vind (tangential) at blade 1, node 4, m/s/s
        153   -8.046774592145E-001                                                     T               2         AD First time derivative of vind (axial) at blade 1, node 5, m/s/s
        154    3.794361970007E-001                                                     T               2         AD First time derivative of vind (tangential) at blade 1, node 5, m/s/s
        155   -8.699515023363E-001                                                     T               2         AD First time derivative of vind (axial) at blade 1, node 6, m/s/s
        156    3.059824289182E-001                                                     T               2         AD First time derivative of vind (tangential) at blade 1, node 6, m/s/s
        157   -7.983371008873E-001                                                     T               2         AD First time derivative of vind (axial) at blade 1, node 7, m/s/s
        158    2.342441693624E-001                                                     T               2         AD First time derivative of vind (tangential) at blade 1, node 7, m/s/s
        159   -7.928727131231E-001                                                     T               2         AD First time derivative of vind (axial) at blade 1, node 8, m/s/s
        160    1.950848694918E-001                                                     T               2         AD First time derivative of vind (tangential) at blade 1, node 8, m/s/s
        161   -8.869586476128E-001                                                     T               2         AD First time derivative of vind (axial) at blade 1, node 9, m/s/s
        162    1.798062112163E-001                                                     T               2         AD First time derivative of vind (tangential) at blade 1, node 9, m/s/s
        163   -9.164286932246E-001                                                     T               2         AD First time derivative of vind (axial) at blade 1, node 10, m/s/s
        164    1.605145486367E-001                                                     T               2         AD First time derivative of vind (tangential) at blade 1, node 10, m/s/s
        165   -1.028773924004E+000                                                     T               2         AD First time derivative of vind (axial) at blade 1, node 11, m/s/s
        166    1.520972902306E-001                                                     T               2         AD First time derivative of vind (tangential) at blade 1, node 11, m/s/s
        167   -1.108801933472E+000                                                     T               2         AD First time derivative of vind (axial) at blade 1, node 12, m/s/s
        168    1.418624364377E-001                                                     T               2         AD First time derivative of vind (tangential) at blade 1, node 12, m/s/s
        169   -1.051091762129E+000                                                     T               2         AD First time derivative of vind (axial) at blade 1, node 13, m/s/s
        170    1.254328756231E-001                                                     T               2         AD First time derivative of vind (tangential) at blade 1, node 13, m/s/s