
Linearized model: Predictions were generated on 03-Jun-2024 at 16:51:59 using OpenFAST, compiled on Jun  3 2024 at 16:15:14 as a 64-bit application using double precision at commit HEAD-HASH-NOTFOUND
 linked with  NWTC Subroutine Library; ElastoDyn; InflowWind; AeroDyn; ServoDyn

Description from the FAST input file: NREL 5.0 MW Baseline Wind Turbine (Onshore), Linearization with AD15 + ED

Simulation information:
   Simulation time:                   410.6400 s
   Rotor Speed:                         1.0001 rad/s
   Azimuth:                             4.1956 rad
   Wind Speed:                          8.0000 m/s
   Number of continuous states:       258
   Number of discrete states:           0
   Number of constraint states:         0
   Number of inputs:                   69
   Number of outputs:                   5
   Jacobians included in this file?    No

Order of continuous states:
   Row/Column Operating Point                                                   Rotating Frame? Derivative Order Description
   ---------- ---------------                                                   --------------- ---------------- -----------
          1    2.082211108340E-001                                                     F               2         ED 1st tower fore-aft bending mode DOF (internal DOF index = DOF_TFA1), m
          2    2.180169970026E-002                                                     F               2         ED 1st tower side-to-side bending mode DOF (internal DOF index = DOF_TSS1), m
          3   -7.291947026470E-005                                                     F               2         ED 2nd tower fore-aft bending mode DOF (internal DOF index = DOF_TFA2), m
          4    1.406896949242E-004                                                     F               2         ED 2nd tower side-to-side bending mode DOF (internal DOF index = DOF_TSS2), m
          5    2.622621508694E+000                                                     F               2         ED Variable speed generator DOF (internal DOF index = DOF_GeAz), rad
          6    2.179867438329E-003                                                     F               2         ED Drivetrain rotational-flexibility DOF (internal DOF index = DOF_DrTr), rad
          7    3.049965771186E+000                                                     T               2         ED 1st flapwise bending-mode DOF of blade 1 (internal DOF index = DOF_BF(1,1)), m
          8    3.176635030900E+000                                                     T               2         ED 1st flapwise bending-mode DOF of blade 2 (internal DOF index = DOF_BF(2,1)), m
          9    3.351123897182E+000                                                     T               2         ED 1st flapwise bending-mode DOF of blade 3 (internal DOF index = DOF_BF(3,1)), m
         10    4.956030688364E-001                                                     T               2         ED 1st edgewise bending-mode DOF of blade 1 (internal DOF index = DOF_BE(1,1)), m
         11    8.237876146695E-002                                                     T               2         ED 1st edgewise bending-mode DOF of blade 2 (internal DOF index = DOF_BE(2,1)), m
         12   -3.109167171096E-001                                                     T               2         ED 1st edgewise bending-mode DOF of blade 3 (internal DOF index = DOF_BE(3,1)), m
         13    8.512773634269E-002                                                     T               2         ED 2nd flapwise bending-mode DOF of blade 1 (internal DOF index = DOF_BF(1,2)), m
         14    5.566563264009E-002                                                     T               2         ED 2nd flapwise bending-mode DOF of blade 2 (internal DOF index = DOF_BF(2,2)), m
         15   -8.505144625987E-003                                                     T               2         ED 2nd flapwise bending-mode DOF of blade 3 (internal DOF index = DOF_BF(3,2)), m
         16    1.232666605152E-004                                                     F               2         ED First time derivative of 1st tower fore-aft bending mode DOF (internal DOF index = DOF_TFA1), m/s
         17   -8.827343270637E-004                                                     F               2         ED First time derivative of 1st tower side-to-side bending mode DOF (internal DOF index = DOF_TSS1), m/s
         18   -2.107484746785E-005                                                     F               2         ED First time derivative of 2nd tower fore-aft bending mode DOF (internal DOF index = DOF_TFA2), m/s
         19   -4.065811052761E-005                                                     F               2         ED First time derivative of 2nd tower side-to-side bending mode DOF (internal DOF index = DOF_TSS2), m/s
         20    1.000274747047E+000                                                     F               2         ED First time derivative of Variable speed generator DOF (internal DOF index = DOF_GeAz), rad/s
         21   -1.482124466209E-004                                                     F               2         ED First time derivative of Drivetrain rotational-flexibility DOF (internal DOF index = DOF_DrTr), rad/s
         22   -1.298604170486E-001                                                     T               2         ED First time derivative of 1st flapwise bending-mode DOF of blade 1 (internal DOF index = DOF_BF(1,1)), m/s
         23    2.045289382475E-001                                                     T               2         ED First time derivative of 1st flapwise bending-mode DOF of blade 2 (internal DOF index = DOF_BF(2,1)), m/s
         24   -1.072495554261E-001                                                     T               2         ED First time derivative of 1st flapwise bending-mode DOF of blade 3 (internal DOF index = DOF_BF(3,1)), m/s
         25    2.416583197439E-001                                                     T               2         ED First time derivative of 1st edgewise bending-mode DOF of blade 1 (internal DOF index = DOF_BE(1,1)), m/s
         26   -5.008261214074E-001                                                     T               2         ED First time derivative of 1st edgewise bending-mode DOF of blade 2 (internal DOF index = DOF_BE(2,1)), m/s
         27    2.753909319181E-001                                                     T               2         ED First time derivative of 1st edgewise bending-mode DOF of blade 3 (internal DOF index = DOF_BE(3,1)), m/s
         28    8.932743427283E-002                                                     T               2         ED First time derivative of 2nd flapwise bending-mode DOF of blade 1 (internal DOF index = DOF_BF(1,2)), m/s
         29   -6.265748305527E-002                                                     T               2         ED First time derivative of 2nd flapwise bending-mode DOF of blade 2 (internal DOF index = DOF_BF(2,2)), m/s
         30    2.148186620593E-002                                                     T               2         ED First time derivative of 2nd flapwise bending-mode DOF of blade 3 (internal DOF index = DOF_BF(3,2)), m/s
         31   -7.544759132805E+000                                                     T               2         AD vind (axial) at blade 1, node 1, m/s
         32    0.000000000000E+000                                                     T               2         AD vind (tangential) at blade 1, node 1, m/s
         33    0.000000000000E+000                                                     T               2         AD vind (axial) at blade 1, node 2, m/s
         34    0.000000000000E+000                                                     T               2         AD vind (tangential) at blade 1, node 2, m/s
         35    0.000000000000E+000                                                     T               2         AD vind (axial) at blade 1, node 3, m/s
         36    0.000000000000E+000                                                     T               2         AD vind (tangential) at blade 1, node 3, m/s
         37    0.000000000000E+000                                                     T               2         AD vind (axial) at blade 1, node 4, m/s
         38    0.000000000000E+000                                                     T               2         AD vind (tangential) at blade 1, node 4, m/s
         39   -2.005875455080E+000                                                     T               2         AD vind (axial) at blade 1, node 5, m/s
         40    9.398682836372E-001                                                     T               2         AD vind (tangential) at blade 1, node 5, m/s
         41   -2.165462384562E+000                                                     T               2         AD vind (axial) at blade 1, node 6, m/s
         42    7.595375140226E-001                                                     T               2         AD vind (tangential) at blade 1, node 6, m/s
         43   -1.989505345977E+000                                                     T               2         AD vind (axial) at blade 1, node 7, m/s
         44    5.826616068429E-001                                                     T               2         AD vind (tangential) at blade 1, node 7, m/s
         45   -1.977986802522E+000                                                     T               2         AD vind (axial) at blade 1, node 8, m/s
         46    4.860513895348E-001                                                     T               2         AD vind (tangential) at blade 1, node 8, m/s
         47   -2.214493988075E+000                                                     T               2         AD vind (axial) at blade 1, node 9, m/s
         48    4.485614723437E-001                                                     T               2         AD vind (tangential) at blade 1, node 9, m/s
         49   -2.288589410455E+000                                                     T               2         AD vind (axial) at blade 1, node 10, m/s
         50    4.007967830780E-001                                                     T               2         AD vind (tangential) at blade 1, node 10, m/s
         51   -2.568956633590E+000                                                     T               2         AD vind (axial) at blade 1, node 11, m/s
         52    3.800308472303E-001                                                     T               2         AD vind (tangential) at blade 1, node 11, m/s
         53   -2.767433464492E+000                                                     T               2         AD vind (axial) at blade 1, node 12, m/s
         54    3.546207118011E-001                                                     T               2         AD vind (tangential) at blade 1, node 12, m/s
         55   -2.622045122240E+000                                                     T               2         AD vind (axial) at blade 1, node 13, m/s
         56    3.136279413736E-001                                                     T               2         AD vind (tangential) at blade 1, node 13, m/s
         57   -2.734017468884E+000                                                     T               2         AD vind (axial) at blade 1, node 14, m/s
         58    2.928145032598E-001                                                     T               2         AD vind (tangential) at blade 1, node 14, m/s
         59   -2.892840465307E+000                                                     T               2         AD vind (axial) at blade 1, node 15, m/s
         60    2.765389742112E-001                                                     T               2         AD vind (tangential) at blade 1, node 15, m/s
         61   -3.147983430079E+000                                                     T               2         AD vind (axial) at blade 1, node 16, m/s
         62    2.680171691618E-001                                                     T               2         AD vind (tangential) at blade 1, node 16, m/s
         63   -3.463039501975E+000                                                     T               2         AD vind (axial) at blade 1, node 17, m/s
         64    2.651272664059E-001                                                     T               2         AD vind (tangential) at blade 1, node 17, m/s
         65   -3.614230529926E+000                                                     T               2         AD vind (axial) at blade 1, node 18, m/s
         66    2.610418722190E-001                                                     T               2         AD vind (tangential) at blade 1, node 18, m/s
         67   -7.910359907044E+000                                                     T               2         AD vind (axial) at blade 1, node 19, m/s
         68    0.000000000000E+000                                                     T               2         AD vind (tangential) at blade 1, node 19, m/s
         69   -7.783113541875E+000                                                     T               2         AD vind (axial) at blade 2, node 1, m/s
         70    0.000000000000E+000                                                     T               2         AD vind (tangential) at blade 2, node 1, m/s
         71    0.000000000000E+000                                                     T               2         AD vind (axial) at blade 2, node 2, m/s
         72    0.000000000000E+000                                                     T               2         AD vind (tangential) at blade 2, node 2, m/s
         73    0.000000000000E+000                                                     T               2         AD vind (axial) at blade 2, node 3, m/s
         74    0.000000000000E+000                                                     T               2         AD vind (tangential) at blade 2, node 3, m/s
         75    0.000000000000E+000                                                     T               2         AD vind (axial) at blade 2, node 4, m/s
         76    0.000000000000E+000                                                     T               2         AD vind (tangential) at blade 2, node 4, m/s
         77   -2.014870688193E+000                                                     T               2         AD vind (axial) at blade 2, node 5, m/s
         78    9.497075649185E-001                                                     T               2         AD vind (tangential) at blade 2, node 5, m/s
         79   -2.176650084112E+000                                                     T               2         AD vind (axial) at blade 2, node 6, m/s
         80    7.649466065720E-001                                                     T               2         AD vind (tangential) at blade 2, node 6, m/s
         81   -1.996921501768E+000                                                     T               2         AD vind (axial) at blade 2, node 7, m/s
         82    5.852952540856E-001                                                     T               2         AD vind (tangential) at blade 2, node 7, m/s
         83   -1.983102109868E+000                                                     T               2         AD vind (axial) at blade 2, node 8, m/s
         84    4.872974663003E-001                                                     T               2         AD vind (tangential) at blade 2, node 8, m/s
         85   -2.219273791067E+000                                                     T               2         AD vind (axial) at blade 2, node 9, m/s
         86    4.491259222268E-001                                                     T               2         AD vind (tangential) at blade 2, node 9, m/s
         87   -2.293537858922E+000                                                     T               2         AD vind (axial) at blade 2, node 10, m/s
         88    4.008764729212E-001                                                     T               2         AD vind (tangential) at blade 2, node 10, m/s
         89   -2.576518554775E+000                                                     T               2         AD vind (axial) at blade 2, node 11, m/s
         90    3.798467823185E-001                                                     T               2         AD vind (tangential) at blade 2, node 11, m/s
         91   -2.779001570954E+000                                                     T               2         AD vind (axial) at blade 2, node 12, m/s
         92    3.542301934899E-001                                                     T               2         AD vind (tangential) at blade 2, node 12, m/s
         93   -2.635888234827E+000                                                     T               2         AD vind (axial) at blade 2, node 13, m/s
         94    3.131738046182E-001                                                     T               2         AD vind (tangential) at blade 2, node 13, m/s
         95   -2.752615713861E+000                                                     T               2         AD vind (axial) at blade 2, node 14, m/s
         96    2.922857914004E-001                                                     T               2         AD vind (tangential) at blade 2, node 14, m/s
         97   -2.916830956605E+000                                                     T               2         AD vind (axial) at blade 2, node 15, m/s
         98    2.758893135512E-001                                                     T               2         AD vind (tangential) at blade 2, node 15, m/s
         99   -3.178354330482E+000                                                     T               2         AD vind (axial) at blade 2, node 16, m/s
        100    2.670898239941E-001                                                     T               2         AD vind (tangential) at blade 2, node 16, m/s
        101   -3.493693659161E+000                                                     T               2         AD vind (axial) at blade 2, node 17, m/s
        102    2.640711942710E-001                                                     T               2         AD vind (tangential) at blade 2, node 17, m/s
        103   -3.640045081493E+000                                                     T               2         AD vind (axial) at blade 2, node 18, m/s
        104    2.601113927337E-001                                                     T               2         AD vind (tangential) at blade 2, node 18, m/s
        105   -7.920292977866E+000                                                     T               2         AD vind (axial) at blade 2, node 19, m/s
        106    0.000000000000E+000                                                     T               2         AD vind (tangential) at blade 2, node 19, m/s
        107   -7.867131977165E+000                                                     T               2         AD vind (axial) at blade 3, node 1, m/s
        108    0.000000000000E+000                                                     T               2         AD vind (tangential) at blade 3, node 1, m/s
        109    0.000000000000E+000                                                     T               2         AD vind (axial) at blade 3, node 2, m/s
        110    0.000000000000E+000                                                     T               2         AD vind (tangential) at blade 3, node 2, m/s
        111    0.000000000000E+000                                                     T               2         AD vind (axial) at blade 3, node 3, m/s
        112    0.000000000000E+000                                                     T               2         AD vind (tangential) at blade 3, node 3, m/s
        113    0.000000000000E+000                                                     T               2         AD vind (axial) at blade 3, node 4, m/s
        114    0.000000000000E+000                                                     T               2         AD vind (tangential) at blade 3, node 4, m/s
        115   -2.023711810448E+000                                                     T               2         AD vind (axial) at blade 3, node 5, m/s
        116    9.549288946389E-001                                                     T               2         AD vind (tangential) at blade 3, node 5, m/s
        117   -2.183698792038E+000                                                     T               2         AD vind (axial) at blade 3, node 6, m/s
        118    7.678499524600E-001                                                     T               2         AD vind (tangential) at blade 3, node 6, m/s
        119   -2.001253153223E+000                                                     T               2         AD vind (axial) at blade 3, node 7, m/s
        120    5.867603915137E-001                                                     T               2         AD vind (tangential) at blade 3, node 7, m/s
        121   -1.985631928503E+000                                                     T               2         AD vind (axial) at blade 3, node 8, m/s
        122    4.880107404539E-001                                                     T               2         AD vind (tangential) at blade 3, node 8, m/s
        123   -2.220575333200E+000                                                     T               2         AD vind (axial) at blade 3, node 9, m/s
        124    4.494293684170E-001                                                     T               2         AD vind (tangential) at blade 3, node 9, m/s
        125   -2.293306270113E+000                                                     T               2         AD vind (axial) at blade 3, node 10, m/s
        126    4.008404521268E-001                                                     T               2         AD vind (tangential) at blade 3, node 10, m/s
        127   -2.574594462908E+000                                                     T               2         AD vind (axial) at blade 3, node 11, m/s
        128    3.795647284488E-001                                                     T               2         AD vind (tangential) at blade 3, node 11, m/s
        129   -2.774649320492E+000                                                     T               2         AD vind (axial) at blade 3, node 12, m/s
        130    3.537134873913E-001                                                     T               2         AD vind (tangential) at blade 3, node 12, m/s
        131   -2.629013891866E+000                                                     T               2         AD vind (axial) at blade 3, node 13, m/s
        132    3.124232463027E-001                                                     T               2         AD vind (tangential) at blade 3, node 13, m/s
        133   -2.741899919004E+000                                                     T               2         AD vind (axial) at blade 3, node 14, m/s
        134    2.913525479705E-001                                                     T               2         AD vind (tangential) at blade 3, node 14, m/s
        135   -2.901086520359E+000                                                     T               2         AD vind (axial) at blade 3, node 15, m/s
        136    2.748520836330E-001                                                     T               2         AD vind (tangential) at blade 3, node 15, m/s
        137   -3.157078477318E+000                                                     T               2         AD vind (axial) at blade 3, node 16, m/s
        138    2.661077279854E-001                                                     T               2         AD vind (tangential) at blade 3, node 16, m/s
        139   -3.471417322211E+000                                                     T               2         AD vind (axial) at blade 3, node 17, m/s
        140    2.631216693362E-001                                                     T               2         AD vind (tangential) at blade 3, node 17, m/s
        141   -3.619512399447E+000                                                     T               2         AD vind (axial) at blade 3, node 18, m/s
        142    2.592968425456E-001                                                     T               2         AD vind (tangential) at blade 3, node 18, m/s
        143   -7.913557683159E+000                                                     T               2         AD vind (axial) at blade 3, node 19, m/s
        144    0.000000000000E+000                                                     T               2         AD vind (tangential) at blade 3, node 19, m/s
        145   -3.040109850748E+000                                                     T               2         AD First time derivative of vind (axial) at blade 1, node 1, m/s/s
        146    0.000000000000E+000                                                     T               2         AD First time derivative of vind (tangential) at blade 1, node 1, m/s/s
        147    0.000000000000E+000                                                     T               2         AD First time derivative of vind (axial) at blade 1, node 2, m/s/s
        148    0.000000000000E+000                                                     T               2         AD First time derivative of vind (tangential) at blade 1, node 2, m/s/s
        149    0.000000000000E+000                                                     T               2         AD First time derivative of vind (axial) at blade 1, node 3, m/s/s
        150    0.000000000000E+000                                                     T               2         AD First time derivative of vind (tangential) at blade 1, node 3, m/s/s
        151    0.000000000000E+000                                                     T               2         AD First time derivative of vind (axial) at blade 1, node 4, m/s/s
        152    0.000000000000E+000                                                     T               2         AD First time derivative of vind (tangential) at blade 1, node 4, m/s/s
        153   -8.043868206628E-001                                                     T               2         AD First time derivative of vind (axial) at blade 1, node 5, m/s/s
        154    3.765956533238E-001                                                     T               2         AD First time derivative of vind (tangential) at blade 1, node 5, m/s/s
        155   -8.670970502845E-001                                                     T               2         AD First time derivative of vind (axial) at blade 1, node 6, m/s/s
        156    3.039540831000E-001                                                     T               2         AD First time derivative of vind (tangential) at blade 1, node 6, m/s/s
        157   -7.963066064245E-001                                                     T               2         AD First time derivative of vind (axial) at blade 1, node 7, m/s/s
        158    2.330827837404E-001                                                     T               2         AD First time derivative of vind (tangential) at blade 1, node 7, m/s/s
        159   -7.915207056789E-001                                                     T               2         AD First time derivative of vind (axial) at blade 1, node 8, m/s/s
        160    1.943816160998E-001                                                     T               2         AD First time derivative of vind (tangential) at blade 1, node 8, m/s/s
        161   -8.861987774113E-001                                                     T               2         AD First time derivative of vind (axial) at blade 1, node 9, m/s/s
        162    1.793624969123E-001                                                     T               2         AD First time derivative of vind (tangential) at blade 1, node 9, m/s/s
        163   -9.158396093113E-001                                                     T               2         AD First time derivative of vind (axial) at blade 1, node 10, m/s/s
        164    1.602242774240E-001                                                     T               2         AD First time derivative of vind (tangential) at blade 1, node 10, m/s/s
        165   -1.028298949193E+000                                                     T               2         AD First time derivative of vind (axial) at blade 1, node 11, m/s/s
        166    1.518979781154E-001                                                     T               2         AD First time derivative of vind (tangential) at blade 1, node 11, m/s/s
        167   -1.108056707124E+000                                                     T               2         AD First time derivative of vind (axial) at blade 1, node 12, m/s/s
        168    1.417091265882E-001                                                     T               2         AD First time derivative of vind (tangential) at blade 1, node 12, m/s/s
        169   -1.050002893960E+000                                                     T               2         AD First time derivative of vind (axial) at blade 1, node 13, m/s/s
        170    1.253024563466E-001                                                     T               2         AD First time derivative of vind (tangential) at blade 1, node 13, m/s/s