
Linearized model: Predictions were generated on 13-Sep-2024 at 15:25:24 using OpenFAST, compiled on Sep 13 2024 at 13:41:05 as a 64-bit application using double precision at commit HEAD-HASH-NOTFOUND
 linked with  NWTC Subroutine Library; ElastoDyn; InflowWind; AeroDyn; ServoDyn

Description from the FAST input file: NREL 5.0 MW Baseline Wind Turbine (Onshore), Linearization with AeroDyn + ED

Simulation information:
   Simulation time:                   238.9100 s
   Rotor Speed:                         0.9983 rad/s
   Azimuth:                             2.0972 rad
   Wind Speed:                          8.0000 m/s
   Number of continuous states:       258
   Number of discrete states:           0
   Number of constraint states:         0
   Number of inputs:                   69
   Number of outputs:                   5
   Jacobians included in this file?    No

Order of continuous states:
   Row/Column Operating Point                                                   Rotating Frame? Derivative Order Description
   ---------- ---------------                                                   --------------- ---------------- -----------
          1    2.080002483145E-001                                                     F               2         ED 1st tower fore-aft bending mode DOF (internal DOF index = DOF_TFA1), m
          2    2.291734275777E-002                                                     F               2         ED 1st tower side-to-side bending mode DOF (internal DOF index = DOF_TSS1), m
          3   -7.380461078940E-005                                                     F               2         ED 2nd tower fore-aft bending mode DOF (internal DOF index = DOF_TFA2), m
          4    1.405870759548E-004                                                     F               2         ED 2nd tower side-to-side bending mode DOF (internal DOF index = DOF_TSS2), m
          5    5.242658458567E-001                                                     F               2         ED Variable speed generator DOF (internal DOF index = DOF_GeAz), rad
          6    2.181696449268E-003                                                     F               2         ED Drivetrain rotational-flexibility DOF (internal DOF index = DOF_DrTr), rad
          7    3.349315236565E+000                                                     T               2         ED 1st flapwise bending-mode DOF of blade 1 (internal DOF index = DOF_BF(1,1)), m
          8    3.049230034596E+000                                                     T               2         ED 1st flapwise bending-mode DOF of blade 2 (internal DOF index = DOF_BF(2,1)), m
          9    3.171486978146E+000                                                     T               2         ED 1st flapwise bending-mode DOF of blade 3 (internal DOF index = DOF_BF(3,1)), m
         10   -3.195829378668E-001                                                     T               2         ED 1st edgewise bending-mode DOF of blade 1 (internal DOF index = DOF_BE(1,1)), m
         11    5.017164718594E-001                                                     T               2         ED 1st edgewise bending-mode DOF of blade 2 (internal DOF index = DOF_BE(2,1)), m
         12    8.432935634399E-002                                                     T               2         ED 1st edgewise bending-mode DOF of blade 3 (internal DOF index = DOF_BE(3,1)), m
         13   -9.689430954043E-003                                                     T               2         ED 2nd flapwise bending-mode DOF of blade 1 (internal DOF index = DOF_BF(1,2)), m
         14    8.577665390985E-002                                                     T               2         ED 2nd flapwise bending-mode DOF of blade 2 (internal DOF index = DOF_BF(2,2)), m
         15    5.626054951708E-002                                                     T               2         ED 2nd flapwise bending-mode DOF of blade 3 (internal DOF index = DOF_BF(3,2)), m
         16    1.927339353354E-004                                                     F               2         ED First time derivative of 1st tower fore-aft bending mode DOF (internal DOF index = DOF_TFA1), m/s
         17   -4.089809539084E-004                                                     F               2         ED First time derivative of 1st tower side-to-side bending mode DOF (internal DOF index = DOF_TSS1), m/s
         18   -1.572166397071E-005                                                     F               2         ED First time derivative of 2nd tower fore-aft bending mode DOF (internal DOF index = DOF_TFA2), m/s
         19   -3.933996195522E-005                                                     F               2         ED First time derivative of 2nd tower side-to-side bending mode DOF (internal DOF index = DOF_TSS2), m/s
         20    9.984773710720E-001                                                     F               2         ED First time derivative of Variable speed generator DOF (internal DOF index = DOF_GeAz), rad/s
         21   -1.328854957951E-004                                                     F               2         ED First time derivative of Drivetrain rotational-flexibility DOF (internal DOF index = DOF_DrTr), rad/s
         22   -9.600329649081E-002                                                     T               2         ED First time derivative of 1st flapwise bending-mode DOF of blade 1 (internal DOF index = DOF_BF(1,1)), m/s
         23   -1.605670567939E-001                                                     T               2         ED First time derivative of 1st flapwise bending-mode DOF of blade 2 (internal DOF index = DOF_BF(2,1)), m/s
         24    2.127452695442E-001                                                     T               2         ED First time derivative of 1st flapwise bending-mode DOF of blade 3 (internal DOF index = DOF_BF(3,1)), m/s
         25    2.813387121997E-001                                                     T               2         ED First time derivative of 1st edgewise bending-mode DOF of blade 1 (internal DOF index = DOF_BE(1,1)), m/s
         26    2.925496846433E-001                                                     T               2         ED First time derivative of 1st edgewise bending-mode DOF of blade 2 (internal DOF index = DOF_BE(2,1)), m/s
         27   -5.516532731744E-001                                                     T               2         ED First time derivative of 1st edgewise bending-mode DOF of blade 3 (internal DOF index = DOF_BE(3,1)), m/s
         28    1.980132834577E-002                                                     T               2         ED First time derivative of 2nd flapwise bending-mode DOF of blade 1 (internal DOF index = DOF_BF(1,2)), m/s
         29    9.444940759689E-002                                                     T               2         ED First time derivative of 2nd flapwise bending-mode DOF of blade 2 (internal DOF index = DOF_BF(2,2)), m/s
         30   -6.831662032040E-002                                                     T               2         ED First time derivative of 2nd flapwise bending-mode DOF of blade 3 (internal DOF index = DOF_BF(3,2)), m/s
         31   -7.867549455110E+000                                                     T               2         AD vind (axial) at blade 1, node 1, m/s
         32    0.000000000000E+000                                                     T               2         AD vind (tangential) at blade 1, node 1, m/s
         33    0.000000000000E+000                                                     T               2         AD vind (axial) at blade 1, node 2, m/s
         34    0.000000000000E+000                                                     T               2         AD vind (tangential) at blade 1, node 2, m/s
         35    0.000000000000E+000                                                     T               2         AD vind (axial) at blade 1, node 3, m/s
         36    0.000000000000E+000                                                     T               2         AD vind (tangential) at blade 1, node 3, m/s
         37    0.000000000000E+000                                                     T               2         AD vind (axial) at blade 1, node 4, m/s
         38    0.000000000000E+000                                                     T               2         AD vind (tangential) at blade 1, node 4, m/s
         39   -2.019978428106E+000                                                     T               2         AD vind (axial) at blade 1, node 5, m/s
         40    9.552403449117E-001                                                     T               2         AD vind (tangential) at blade 1, node 5, m/s
         41   -2.183299520091E+000                                                     T               2         AD vind (axial) at blade 1, node 6, m/s
         42    7.689537126094E-001                                                     T               2         AD vind (tangential) at blade 1, node 6, m/s
         43   -2.001231598889E+000                                                     T               2         AD vind (axial) at blade 1, node 7, m/s
         44    5.876950738571E-001                                                     T               2         AD vind (tangential) at blade 1, node 7, m/s
         45   -1.985455647410E+000                                                     T               2         AD vind (axial) at blade 1, node 8, m/s
         46    4.887751060110E-001                                                     T               2         AD vind (tangential) at blade 1, node 8, m/s
         47   -2.219237670819E+000                                                     T               2         AD vind (axial) at blade 1, node 9, m/s
         48    4.499988784234E-001                                                     T               2         AD vind (tangential) at blade 1, node 9, m/s
         49   -2.291455911313E+000                                                     T               2         AD vind (axial) at blade 1, node 10, m/s
         50    4.013060512096E-001                                                     T               2         AD vind (tangential) at blade 1, node 10, m/s
         51   -2.571136387245E+000                                                     T               2         AD vind (axial) at blade 1, node 11, m/s
         52    3.799214372869E-001                                                     T               2         AD vind (tangential) at blade 1, node 11, m/s
         53   -2.769925284945E+000                                                     T               2         AD vind (axial) at blade 1, node 12, m/s
         54    3.540132869158E-001                                                     T               2         AD vind (tangential) at blade 1, node 12, m/s
         55   -2.624180089399E+000                                                     T               2         AD vind (axial) at blade 1, node 13, m/s
         56    3.126461765526E-001                                                     T               2         AD vind (tangential) at blade 1, node 13, m/s
         57   -2.736251620928E+000                                                     T               2         AD vind (axial) at blade 1, node 14, m/s
         58    2.915488354454E-001                                                     T               2         AD vind (tangential) at blade 1, node 14, m/s
         59   -2.894666942908E+000                                                     T               2         AD vind (axial) at blade 1, node 15, m/s
         60    2.750504746031E-001                                                     T               2         AD vind (tangential) at blade 1, node 15, m/s
         61   -3.149992853341E+000                                                     T               2         AD vind (axial) at blade 1, node 16, m/s
         62    2.663491520934E-001                                                     T               2         AD vind (tangential) at blade 1, node 16, m/s
         63   -3.465351552667E+000                                                     T               2         AD vind (axial) at blade 1, node 17, m/s
         64    2.633719249297E-001                                                     T               2         AD vind (tangential) at blade 1, node 17, m/s
         65   -3.615195529350E+000                                                     T               2         AD vind (axial) at blade 1, node 18, m/s
         66    2.595548189286E-001                                                     T               2         AD vind (tangential) at blade 1, node 18, m/s
         67   -7.914316999162E+000                                                     T               2         AD vind (axial) at blade 1, node 19, m/s
         68    0.000000000000E+000                                                     T               2         AD vind (tangential) at blade 1, node 19, m/s
         69   -7.544213457538E+000                                                     T               2         AD vind (axial) at blade 2, node 1, m/s
         70    0.000000000000E+000                                                     T               2         AD vind (tangential) at blade 2, node 1, m/s
         71    0.000000000000E+000                                                     T               2         AD vind (axial) at blade 2, node 2, m/s
         72    0.000000000000E+000                                                     T               2         AD vind (tangential) at blade 2, node 2, m/s
         73    0.000000000000E+000                                                     T               2         AD vind (axial) at blade 2, node 3, m/s
         74    0.000000000000E+000                                                     T               2         AD vind (tangential) at blade 2, node 3, m/s
         75    0.000000000000E+000                                                     T               2         AD vind (axial) at blade 2, node 4, m/s
         76    0.000000000000E+000                                                     T               2         AD vind (tangential) at blade 2, node 4, m/s
         77   -2.002421011052E+000                                                     T               2         AD vind (axial) at blade 2, node 5, m/s
         78    9.402072627511E-001                                                     T               2         AD vind (tangential) at blade 2, node 5, m/s
         79   -2.164982036385E+000                                                     T               2         AD vind (axial) at blade 2, node 6, m/s
         80    7.606057138033E-001                                                     T               2         AD vind (tangential) at blade 2, node 6, m/s
         81   -1.989457612123E+000                                                     T               2         AD vind (axial) at blade 2, node 7, m/s
         82    5.835868597886E-001                                                     T               2         AD vind (tangential) at blade 2, node 7, m/s
         83   -1.977746648704E+000                                                     T               2         AD vind (axial) at blade 2, node 8, m/s
         84    4.868067243069E-001                                                     T               2         AD vind (tangential) at blade 2, node 8, m/s
         85   -2.213071371663E+000                                                     T               2         AD vind (axial) at blade 2, node 9, m/s
         86    4.491227265351E-001                                                     T               2         AD vind (tangential) at blade 2, node 9, m/s
         87   -2.286581726030E+000                                                     T               2         AD vind (axial) at blade 2, node 10, m/s
         88    4.012472034622E-001                                                     T               2         AD vind (tangential) at blade 2, node 10, m/s
         89   -2.565279634478E+000                                                     T               2         AD vind (axial) at blade 2, node 11, m/s
         90    3.803640716417E-001                                                     T               2         AD vind (tangential) at blade 2, node 11, m/s
         91   -2.762306960317E+000                                                     T               2         AD vind (axial) at blade 2, node 12, m/s
         92    3.548743928085E-001                                                     T               2         AD vind (tangential) at blade 2, node 12, m/s
         93   -2.616963831971E+000                                                     T               2         AD vind (axial) at blade 2, node 13, m/s
         94    3.138005216428E-001                                                     T               2         AD vind (tangential) at blade 2, node 13, m/s
         95   -2.728190067480E+000                                                     T               2         AD vind (axial) at blade 2, node 14, m/s
         96    2.929354499614E-001                                                     T               2         AD vind (tangential) at blade 2, node 14, m/s
         97   -2.886387183796E+000                                                     T               2         AD vind (axial) at blade 2, node 15, m/s
         98    2.766238310781E-001                                                     T               2         AD vind (tangential) at blade 2, node 15, m/s
         99   -3.140803755681E+000                                                     T               2         AD vind (axial) at blade 2, node 16, m/s
        100    2.680948202902E-001                                                     T               2         AD vind (tangential) at blade 2, node 16, m/s
        101   -3.455891948143E+000                                                     T               2         AD vind (axial) at blade 2, node 17, m/s
        102    2.651972400796E-001                                                     T               2         AD vind (tangential) at blade 2, node 17, m/s
        103   -3.607822944475E+000                                                     T               2         AD vind (axial) at blade 2, node 18, m/s
        104    2.610763090048E-001                                                     T               2         AD vind (tangential) at blade 2, node 18, m/s
        105   -7.904096755031E+000                                                     T               2         AD vind (axial) at blade 2, node 19, m/s
        106    0.000000000000E+000                                                     T               2         AD vind (tangential) at blade 2, node 19, m/s
        107   -7.782954395242E+000                                                     T               2         AD vind (axial) at blade 3, node 1, m/s
        108    0.000000000000E+000                                                     T               2         AD vind (tangential) at blade 3, node 1, m/s
        109    0.000000000000E+000                                                     T               2         AD vind (axial) at blade 3, node 2, m/s
        110    0.000000000000E+000                                                     T               2         AD vind (tangential) at blade 3, node 2, m/s
        111    0.000000000000E+000                                                     T               2         AD vind (axial) at blade 3, node 3, m/s
        112    0.000000000000E+000                                                     T               2         AD vind (tangential) at blade 3, node 3, m/s
        113    0.000000000000E+000                                                     T               2         AD vind (axial) at blade 3, node 4, m/s
        114    0.000000000000E+000                                                     T               2         AD vind (tangential) at blade 3, node 4, m/s
        115   -2.011326407788E+000                                                     T               2         AD vind (axial) at blade 3, node 5, m/s
        116    9.500358240232E-001                                                     T               2         AD vind (tangential) at blade 3, node 5, m/s
        117   -2.176304946730E+000                                                     T               2         AD vind (axial) at blade 3, node 6, m/s
        118    7.660516628435E-001                                                     T               2         AD vind (tangential) at blade 3, node 6, m/s
        119   -1.996940592132E+000                                                     T               2         AD vind (axial) at blade 3, node 7, m/s
        120    5.862409458876E-001                                                     T               2         AD vind (tangential) at blade 3, node 7, m/s
        121   -1.982961195579E+000                                                     T               2         AD vind (axial) at blade 3, node 8, m/s
        122    4.880800417630E-001                                                     T               2         AD vind (tangential) at blade 3, node 8, m/s
        123   -2.217963688771E+000                                                     T               2         AD vind (axial) at blade 3, node 9, m/s
        124    4.497208722279E-001                                                     T               2         AD vind (tangential) at blade 3, node 9, m/s
        125   -2.291689397990E+000                                                     T               2         AD vind (axial) at blade 3, node 10, m/s
        126    4.013725530009E-001                                                     T               2         AD vind (tangential) at blade 3, node 10, m/s
        127   -2.572990139797E+000                                                     T               2         AD vind (axial) at blade 3, node 11, m/s
        128    3.802384601736E-001                                                     T               2         AD vind (tangential) at blade 3, node 11, m/s
        129   -2.774081441112E+000                                                     T               2         AD vind (axial) at blade 3, node 12, m/s
        130    3.545673900028E-001                                                     T               2         AD vind (tangential) at blade 3, node 12, m/s
        131   -2.630823713643E+000                                                     T               2         AD vind (axial) at blade 3, node 13, m/s
        132    3.134352483409E-001                                                     T               2         AD vind (tangential) at blade 3, node 13, m/s
        133   -2.746611532122E+000                                                     T               2         AD vind (axial) at blade 3, node 14, m/s
        134    2.925217022599E-001                                                     T               2         AD vind (tangential) at blade 3, node 14, m/s
        135   -2.909894052572E+000                                                     T               2         AD vind (axial) at blade 3, node 15, m/s
        136    2.761291308876E-001                                                     T               2         AD vind (tangential) at blade 3, node 15, m/s
        137   -3.170613136418E+000                                                     T               2         AD vind (axial) at blade 3, node 16, m/s
        138    2.673763389473E-001                                                     T               2         AD vind (tangential) at blade 3, node 16, m/s
        139   -3.487017618870E+000                                                     T               2         AD vind (axial) at blade 3, node 17, m/s
        140    2.643698003372E-001                                                     T               2         AD vind (tangential) at blade 3, node 17, m/s
        141   -3.635262114493E+000                                                     T               2         AD vind (axial) at blade 3, node 18, m/s
        142    2.604224403052E-001                                                     T               2         AD vind (tangential) at blade 3, node 18, m/s
        143   -7.921554845536E+000                                                     T               2         AD vind (axial) at blade 3, node 19, m/s
        144    0.000000000000E+000                                                     T               2         AD vind (tangential) at blade 3, node 19, m/s
        145   -3.135363309847E+000                                                     T               2         AD First time derivative of vind (axial) at blade 1, node 1, m/s/s
        146    0.000000000000E+000                                                     T               2         AD First time derivative of vind (tangential) at blade 1, node 1, m/s/s
        147    0.000000000000E+000                                                     T               2         AD First time derivative of vind (axial) at blade 1, node 2, m/s/s
        148    0.000000000000E+000                                                     T               2         AD First time derivative of vind (tangential) at blade 1, node 2, m/s/s
        149    0.000000000000E+000                                                     T               2         AD First time derivative of vind (axial) at blade 1, node 3, m/s/s
        150    0.000000000000E+000                                                     T               2         AD First time derivative of vind (tangential) at blade 1, node 3, m/s/s
        151    0.000000000000E+000                                                     T               2         AD First time derivative of vind (axial) at blade 1, node 4, m/s/s
        152    0.000000000000E+000                                                     T               2         AD First time derivative of vind (tangential) at blade 1, node 4, m/s/s
        153   -8.071913572849E-001                                                     T               2         AD First time derivative of vind (axial) at blade 1, node 5, m/s/s
        154    3.812629182734E-001                                                     T               2         AD First time derivative of vind (tangential) at blade 1, node 5, m/s/s
        155   -8.722335292231E-001                                                     T               2         AD First time derivative of vind (axial) at blade 1, node 6, m/s/s
        156    3.070030547590E-001                                                     T               2         AD First time derivative of vind (tangential) at blade 1, node 6, m/s/s
        157   -7.997315982490E-001                                                     T               2         AD First time derivative of vind (axial) at blade 1, node 7, m/s/s
        158    2.347419516353E-001                                                     T               2         AD First time derivative of vind (tangential) at blade 1, node 7, m/s/s
        159   -7.936635854782E-001                                                     T               2         AD First time derivative of vind (axial) at blade 1, node 8, m/s/s
        160    1.953061280912E-001                                                     T               2         AD First time derivative of vind (tangential) at blade 1, node 8, m/s/s
        161   -8.873819210554E-001                                                     T               2         AD First time derivative of vind (axial) at blade 1, node 9, m/s/s
        162    1.798726050134E-001                                                     T               2         AD First time derivative of vind (tangential) at blade 1, node 9, m/s/s
        163   -9.164620431693E-001                                                     T               2         AD First time derivative of vind (axial) at blade 1, node 10, m/s/s
        164    1.604549220649E-001                                                     T               2         AD First time derivative of vind (tangential) at blade 1, node 10, m/s/s
        165   -1.028581514769E+000                                                     T               2         AD First time derivative of vind (axial) at blade 1, node 11, m/s/s
        166    1.519460140461E-001                                                     T               2         AD First time derivative of vind (tangential) at blade 1, node 11, m/s/s
        167   -1.108394916868E+000                                                     T               2         AD First time derivative of vind (axial) at blade 1, node 12, m/s/s
        168    1.416239858940E-001                                                     T               2         AD First time derivative of vind (tangential) at blade 1, node 12, m/s/s
        169   -1.050436101661E+000                                                     T               2         AD First time derivative of vind (axial) at blade 1, node 13, m/s/s
        170    1.251240397565E-001                                                     T               2         AD First time derivative of vind (tangential) at blade 1, node 13, m/s/s