
Linearized model: Predictions were generated on 17-Apr-2024 at 16:54:56 using OpenFAST, compiled on Apr 17 2024 at 16:41:44 as a 64-bit application using double precision at commit -128-NOTFOUND
 linked with  NWTC Subroutine Library; ElastoDyn; InflowWind; AeroDyn

Description from the FAST input file: One Blade, 4 aero-stations, Linearization with continuous States AeroDynamic modules

Simulation information:
   Simulation time:                     1.1000 s
   Rotor Speed:                         1.2671 rad/s
   Azimuth:                             1.3938 rad
   Wind Speed:                         13.0000 m/s
   Number of continuous states:        30
   Number of discrete states:           0
   Number of constraint states:         0
   Number of inputs:                   11
   Number of outputs:                  31
   Jacobians included in this file?    No

Order of continuous states:
   Row/Column Operating Point                                                   Rotating Frame? Derivative Order Description
   ---------- ---------------                                                   --------------- ---------------- -----------
          1    6.244686307999E+000                                                     T               2         ED 1st flapwise bending-mode DOF of blade 1 (internal DOF index = DOF_BF(1,1)), m
          2   -9.975169781376E+000                                                     T               2         ED First time derivative of 1st flapwise bending-mode DOF of blade 1 (internal DOF index = DOF_BF(1,1)), m/s
          3   -1.303013675326E+001                                                     T               2         AD vind (axial) at blade 1, node 1, m/s
          4    0.000000000000E+000                                                     T               2         AD vind (tangential) at blade 1, node 1, m/s
          5   -8.932063693174E-001                                                     T               2         AD vind (axial) at blade 1, node 2, m/s
          6    3.691117474564E-001                                                     T               2         AD vind (tangential) at blade 1, node 2, m/s
          7   -1.265428154636E+000                                                     T               2         AD vind (axial) at blade 1, node 3, m/s
          8    2.846961877434E-001                                                     T               2         AD vind (tangential) at blade 1, node 3, m/s
          9   -1.411520328671E+001                                                     T               2         AD vind (axial) at blade 1, node 4, m/s
         10    0.000000000000E+000                                                     T               2         AD vind (tangential) at blade 1, node 4, m/s
         11   -5.212118268916E+000                                                     T               2         AD First time derivative of vind (axial) at blade 1, node 1, m/s/s
         12    0.000000000000E+000                                                     T               2         AD First time derivative of vind (tangential) at blade 1, node 1, m/s/s
         13   -3.570780418522E-001                                                     T               2         AD First time derivative of vind (axial) at blade 1, node 2, m/s/s
         14    1.476657475889E-001                                                     T               2         AD First time derivative of vind (tangential) at blade 1, node 2, m/s/s
         15   -5.061862212345E-001                                                     T               2         AD First time derivative of vind (axial) at blade 1, node 3, m/s/s
         16    1.142691158356E-001                                                     T               2         AD First time derivative of vind (tangential) at blade 1, node 3, m/s/s
         17   -5.749611780548E+000                                                     T               2         AD First time derivative of vind (axial) at blade 1, node 4, m/s/s
         18    0.000000000000E+000                                                     T               2         AD First time derivative of vind (tangential) at blade 1, node 4, m/s/s
         19    6.474575633533E-002                                                     T               1         AD x1 blade 1, node 2, rad
         20    1.593840338610E-001                                                     T               1         AD x2 blade 1, node 2, rad
         21    2.279600107027E+000                                                     T               1         AD x3 blade 1, node 2, -
         22    3.754631058571E-001                                                     T               1         AD x4 blade 1, node 2, -
         23    5.550632374884E-002                                                     T               1         AD x1 blade 1, node 3, rad
         24    1.491542330370E-001                                                     T               1         AD x2 blade 1, node 3, rad
         25    2.125962675145E+000                                                     T               1         AD x3 blade 1, node 3, -
         26    4.481163280746E-001                                                     T               1         AD x4 blade 1, node 3, -
         27   -9.113015095055E-004                                                     T               1         AD x1 blade 1, node 4, rad
         28   -1.941070049926E-003                                                     T               1         AD x2 blade 1, node 4, rad
         29    5.788725264974E-001                                                     T               1         AD x3 blade 1, node 4, -
         30    5.201146159078E-001                                                     T               1         AD x4 blade 1, node 4, -

Order of continuous state derivatives:
   Row/Column Operating Point                                                   Rotating Frame? Derivative Order Description
   ---------- ---------------                                                   --------------- ---------------- -----------
          1   -9.975169781376E+000                                                     T               2         First time derivative of ED 1st flapwise bending-mode DOF of blade 1 (internal DOF index = DOF_BF(1,1)), m/s
          2   -6.381941775272E+000                                                     T               2         First time derivative of ED First time derivative of 1st flapwise bending-mode DOF of blade 1 (internal DOF index = DOF_BF(1,1)), m/s/s
          3    1.160564194006E-003                                                     T               2         First time derivative of AD vind (axial) at blade 1, node 1, m/s/s
          4    0.000000000000E+000                                                     T               2         First time derivative of AD vind (tangential) at blade 1, node 1, m/s/s
          5   -6.145283109761E-004                                                     T               2         First time derivative of AD vind (axial) at blade 1, node 2, m/s/s
          6    1.569585796914E-004                                                     T               2         First time derivative of AD vind (tangential) at blade 1, node 2, m/s/s
          7    1.726746073703E-003                                                     T               2         First time derivative of AD vind (axial) at blade 1, node 3, m/s/s
          8    1.076821676499E-003                                                     T               2         First time derivative of AD vind (tangential) at blade 1, node 3, m/s/s
          9   -4.150787324253E-001                                                     T               2         First time derivative of AD vind (axial) at blade 1, node 4, m/s/s
         10    0.000000000000E+000                                                     T               2         First time derivative of AD vind (tangential) at blade 1, node 4, m/s/s
         11    3.026921122998E-004                                                     T               2         First time derivative of AD First time derivative of vind (axial) at blade 1, node 1, m/s/s/s
         12    0.000000000000E+000                                                     T               2         First time derivative of AD First time derivative of vind (tangential) at blade 1, node 1, m/s/s/s
         13   -1.476602414734E-004                                                     T               2         First time derivative of AD First time derivative of vind (axial) at blade 1, node 2, m/s/s/s
         14    3.649299163198E-005                                                     T               2         First time derivative of AD First time derivative of vind (tangential) at blade 1, node 2, m/s/s/s
         15    2.995327038329E-004                                                     T               2         First time derivative of AD First time derivative of vind (axial) at blade 1, node 3, m/s/s/s
         16    1.801263933832E-004                                                     T               2         First time derivative of AD First time derivative of vind (tangential) at blade 1, node 3, m/s/s/s
         17   -3.424798237915E-002                                                     T               2         First time derivative of AD First time derivative of vind (axial) at blade 1, node 4, m/s/s/s
         18    0.000000000000E+000                                                     T               2         First time derivative of AD First time derivative of vind (tangential) at blade 1, node 4, m/s/s/s
         19    1.039582312750E-002                                                     T               1         First time derivative of AD x1 blade 1, node 2, rad/s
         20    2.069725516257E-002                                                     T               1         First time derivative of AD x2 blade 1, node 2, rad/s
         21    3.735186658221E-001                                                     T               1         First time derivative of AD x3 blade 1, node 2, -/s
         22   -1.343410996796E-001                                                     T               1         First time derivative of AD x4 blade 1, node 2, -/s
         23    5.305104635307E-002                                                     T               1         First time derivative of AD x1 blade 1, node 3, rad/s
         24    5.896690266071E-002                                                     T               1         First time derivative of AD x2 blade 1, node 3, rad/s
         25    1.163887563659E+000                                                     T               1         First time derivative of AD x3 blade 1, node 3, -/s
         26   -5.597068774887E-001                                                     T               1         First time derivative of AD x4 blade 1, node 3, -/s
         27    1.697605649780E-003                                                     T               1         First time derivative of AD x1 blade 1, node 4, rad/s
         28    4.032726348715E-003                                                     T               1         First time derivative of AD x2 blade 1, node 4, rad/s
         29    3.103318421552E-002                                                     T               1         First time derivative of AD x3 blade 1, node 4, -/s
         30    1.203294011644E-002                                                     T               1         First time derivative of AD x4 blade 1, node 4, -/s

Order of inputs:
     Column   Operating Point                                                   Rotating Frame? Derivative Order Description
   ---------- ---------------                                                   --------------- ---------------- -----------
          1    1.300000000000E+001                                                     F               0         IfW Extended input: horizontal wind speed (steady/uniform wind), m/s
          2    2.000000000000E-001                                                     F               0         IfW Extended input: vertical power-law shear exponent, -
          3    0.000000000000E+000                                                     F               0         IfW Extended input: propagation direction, rad
          4    0.000000000000E+000                                                     T               0         ED Blade 1 pitch command, rad
          5    0.000000000000E+000                                                     F               0         ED Yaw moment, Nm
          6    0.000000000000E+000                                                     F               0         ED Generator torque, Nm
          7    0.000000000000E+000                                                     F               0         ED Extended input: collective blade-pitch command, rad
          8    0.000000000000E+000                                                     T               0         AD User property on blade 1, node 1, -
          9    0.000000000000E+000                                                     T               0         AD User property on blade 1, node 2, -
         10    0.000000000000E+000                                                     T               0         AD User property on blade 1, node 3, -
         11    0.000000000000E+000                                                     T               0         AD User property on blade 1, node 4, -

Order of outputs:
        Row   Operating Point                                                   Rotating Frame? Derivative Order Description
   ---------- ---------------                                                   --------------- ---------------- -----------
          1    1.300000000000E+001                                                     F               0         IfW Wind1VelX, (m/s)
          2   -0.000000000000E+000                                                     F               0         IfW Wind1VelY, (m/s)
          3    0.000000000000E+000                                                     F               0         IfW Wind1VelZ, (m/s)
          4    3.203902818609E+002                                                     F               0         ED TwrBsFxt, (kN)
          5    3.177456712807E+004                                                     F               0         ED TwrBsMyt, (kN-m)
          6    6.244686307999E+000                                                     F               0         ED Q_B1F1, (m)
          7    8.778806155890E-002                                                     F               0         AD RtAeroCp, (-)
          8    1.384706475422E-001                                                     F               0         AD RtAeroCt, (-)
          9    1.509771664417E+000                                                     T               0         AD B1N1Cl, (-)
         10    7.500526646744E-002                                                     T               0         AD B1N1AxInd, (-)
         11    5.011850392005E-003                                                     T               0         AD B1N1TnInd, (-)
         12    0.000000000000E+000                                                     T               0         AD AB1N001UA_Flag, (-)
         13    1.000000000000E+000                                                     T               0         AD AB1N002UA_Flag, (-)
         14    1.000000000000E+000                                                     T               0         AD AB1N003UA_Flag, (-)
         15    1.000000000000E+000                                                     T               0         AD AB1N004UA_Flag, (-)
         16    0.000000000000E+000                                                     T               0         AD AB1N001UA_x1, (rad)
         17    6.474575633533E-002                                                     T               0         AD AB1N002UA_x1, (rad)
         18    5.550632374884E-002                                                     T               0         AD AB1N003UA_x1, (rad)
         19   -9.113015095055E-004                                                     T               0         AD AB1N004UA_x1, (rad)
         20    0.000000000000E+000                                                     T               0         AD AB1N001UA_x2, (rad)
         21    1.593840338610E-001                                                     T               0         AD AB1N002UA_x2, (rad)
         22    1.491542330370E-001                                                     T               0         AD AB1N003UA_x2, (rad)
         23   -1.941070049926E-003                                                     T               0         AD AB1N004UA_x2, (rad)
         24    0.000000000000E+000                                                     T               0         AD AB1N001UA_x3, (-)
         25    2.279600107027E+000                                                     T               0         AD AB1N002UA_x3, (-)
         26    2.125962675145E+000                                                     T               0         AD AB1N003UA_x3, (-)
         27    5.788725264974E-001                                                     T               0         AD AB1N004UA_x3, (-)
         28    0.000000000000E+000                                                     T               0         AD AB1N001UA_x4, (-)
         29    3.754631058571E-001                                                     T               0         AD AB1N002UA_x4, (-)
         30    4.481163280746E-001                                                     T               0         AD AB1N003UA_x4, (-)
         31    5.201146159078E-001                                                     T               0         AD AB1N004UA_x4, (-)


Linearized state matrices:

A: 30 x 30
    0.000000000000E+000  1.000000000000E+000  0.000000000000E+000  0.000000000000E+000  0.000000000000E+000  0.000000000000E+000  0.000000000000E+000  0.000000000000E+000  0.000000000000E+000  0.000000000000E+000  0.000000000000E+000  0.000000000000E+000  0.000000000000E+000  0.000000000000E+000  0.000000000000E+000  0.000000000000E+000  0.000000000000E+000  0.000000000000E+000  0.000000000000E+000  0.000000000000E+000  0.000000000000E+000  0.000000000000E+000  0.000000000000E+000  0.000000000000E+000  0.000000000000E+000  0.000000000000E+000  0.000000000000E+000  0.000000000000E+000  0.000000000000E+000  0.000000000000E+000
   -2.030015870860E+001 -4.958138253089E-002  0.000000000000E+000  0.000000000000E+000  1.861930224915E-001  4.169408977551E-001  6.216080825054E-001  2.020057553087E+000  0.000000000000E+000  0.000000000000E+000  0.000000000000E+000  0.000000000000E+000  0.000000000000E+000  0.000000000000E+000  0.000000000000E+000  0.000000000000E+000  0.000000000000E+000  0.000000000000E+000  2.208583049937E+001  2.208583049937E+001  0.000000000000E+000  6.764089768386E+000  1.977629672098E+002  1.977629672098E+002  0.000000000000E+000  4.998666056284E+001  1.771186099716E+002  1.771186099716E+002  0.000000000000E+000  9.401797123640E+000
   -5.275075568253E-003 -2.392615698731E-019 -2.565071974878E-002  0.000000000000E+000 -1.456669925968E-020 -3.261872656596E-020 -4.886806522287E-020 -1.588106836139E-019  0.000000000000E+000  0.000000000000E+000  2.565071974878E-002  0.000000000000E+000  0.000000000000E+000  0.000000000000E+000  0.000000000000E+000  0.000000000000E+000  0.000000000000E+000  0.000000000000E+000 -1.728146243152E-018 -1.728146243152E-018  0.000000000000E+000 -5.292354797662E-019 -1.554637109680E-017 -1.554637109680E-017  0.000000000000E+000 -3.929642771886E-018 -1.384566514193E-017 -1.384566514193E-017  0.000000000000E+000 -7.349152190879E-019
    0.000000000000E+000  0.000000000000E+000  0.000000000000E+000 -2.565071974878E-002  0.000000000000E+000  0.000000000000E+000  0.000000000000E+000  0.000000000000E+000  0.000000000000E+000  0.000000000000E+000  0.000000000000E+000  2.565071974878E-002  0.000000000000E+000  0.000000000000E+000  0.000000000000E+000  0.000000000000E+000  0.000000000000E+000  0.000000000000E+000  0.000000000000E+000  0.000000000000E+000  0.000000000000E+000  0.000000000000E+000  0.000000000000E+000  0.000000000000E+000  0.000000000000E+000  0.000000000000E+000  0.000000000000E+000  0.000000000000E+000  0.000000000000E+000  0.000000000000E+000
   -1.146278737605E-004 -7.858490208951E-005  0.000000000000E+000  0.000000000000E+000 -2.840072093401E-002  4.533003615576E-021  6.562121489625E-021  2.131748062007E-020  0.000000000000E+000  0.000000000000E+000  0.000000000000E+000  0.000000000000E+000  2.840072093401E-002  0.000000000000E+000  0.000000000000E+000  0.000000000000E+000  0.000000000000E+000  0.000000000000E+000  2.392011382720E-019  2.392011382720E-019  0.000000000000E+000  7.346780028951E-020  2.091091066569E-018  2.091091066569E-018  0.000000000000E+000  5.284481283629E-019  1.383716435935E-018  1.383716435935E-018  0.000000000000E+000  7.442256776100E-020
    1.941183800494E-004 -1.515306280202E-005  0.000000000000E+000  0.000000000000E+000 -5.141364992355E-022 -2.840072093401E-002 -1.806631369389E-021 -5.871083847888E-021  0.000000000000E+000  0.000000000000E+000  0.000000000000E+000  0.000000000000E+000  0.000000000000E+000  2.840072093401E-002  0.000000000000E+000  0.000000000000E+000  0.000000000000E+000  0.000000000000E+000 -6.096917202933E-020 -6.096917202933E-020  0.000000000000E+000 -1.871045155230E-020 -5.750924220123E-019 -5.750924220123E-019  0.000000000000E+000 -1.454591735962E-019 -3.367599231907E-019 -3.367599231907E-019  0.000000000000E+000 -1.819729690600E-020
    7.620435616075E-004 -3.433914264052E-004  0.000000000000E+000  0.000000000000E+000  2.161726670997E-021  4.843817736698E-021 -3.846401513958E-002  3.296567317330E-020  0.000000000000E+000  0.000000000000E+000  0.000000000000E+000  0.000000000000E+000  0.000000000000E+000  0.000000000000E+000  3.846401513958E-002  0.000000000000E+000  0.000000000000E+000  0.000000000000E+000  2.566697134708E-019  2.566697134708E-019  0.000000000000E+000  7.884401953582E-020  3.221458898575E-018  3.221458898575E-018  0.000000000000E+000  8.163892777806E-019  2.366458131370E-018  2.366458131370E-018  0.000000000000E+000  1.297815205675E-019
   -2.055942869641E-004 -1.201314913374E-004  0.000000000000E+000  0.000000000000E+000 -3.488017439335E-022 -7.823300356602E-022 -1.842501768557E-021 -3.846401513958E-002  0.000000000000E+000  0.000000000000E+000  0.000000000000E+000  0.000000000000E+000  0.000000000000E+000  0.000000000000E+000  0.000000000000E+000  3.846401513958E-002  0.000000000000E+000  0.000000000000E+000 -4.117529769275E-020 -4.117529769275E-020  0.000000000000E+000 -1.270984456780E-020 -5.852206547594E-019 -5.852206547594E-019  0.000000000000E+000 -1.484964970675E-019 -2.853272221229E-019 -2.853272221229E-019  0.000000000000E+000 -1.610834244290E-020
   -1.236684896685E-003  4.789533311504E-002  0.000000000000E+000  0.000000000000E+000  3.082419555874E-020  6.856032961717E-020  1.679699077961E-019  5.479475308458E-019 -7.692307692308E-002  0.000000000000E+000  0.000000000000E+000  0.000000000000E+000  0.000000000000E+000  0.000000000000E+000  0.000000000000E+000  0.000000000000E+000  7.692307692308E-002  0.000000000000E+000  3.984599740978E-018  3.984599740978E-018  0.000000000000E+000  1.181301036089E-018  5.280032552218E-017  5.280032552218E-017  0.000000000000E+000  1.345772740776E-017  4.635671061670E-017  4.635671061670E-017  0.000000000000E+000  2.517921787709E-018
    0.000000000000E+000  0.000000000000E+000  0.000000000000E+000  0.000000000000E+000  0.000000000000E+000  0.000000000000E+000  0.000000000000E+000  0.000000000000E+000  0.000000000000E+000 -7.692307692308E-002  0.000000000000E+000  0.000000000000E+000  0.000000000000E+000  0.000000000000E+000  0.000000000000E+000  0.000000000000E+000  0.000000000000E+000  7.692307692308E-002  0.000000000000E+000  0.000000000000E+000  0.000000000000E+000  0.000000000000E+000  0.000000000000E+000  0.000000000000E+000  0.000000000000E+000  0.000000000000E+000  0.000000000000E+000  0.000000000000E+000  0.000000000000E+000  0.000000000000E+000
   -1.371001313002E-003 -6.218449806123E-020  0.000000000000E+000  0.000000000000E+000 -3.785910467580E-021 -8.477663755095E-021 -1.270089512795E-020 -4.127517282666E-020  0.000000000000E+000  0.000000000000E+000 -1.000000000000E-002  0.000000000000E+000  0.000000000000E+000  0.000000000000E+000  0.000000000000E+000  0.000000000000E+000  0.000000000000E+000  0.000000000000E+000 -4.491482136634E-019 -4.491482136634E-019  0.000000000000E+000 -1.375492214772E-019 -4.040528881596E-018 -4.040528881596E-018  0.000000000000E+000 -1.021320989657E-018 -3.598512446572E-018 -3.598512446572E-018  0.000000000000E+000 -1.910057433828E-019
    0.000000000000E+000  0.000000000000E+000  0.000000000000E+000  0.000000000000E+000  0.000000000000E+000  0.000000000000E+000  0.000000000000E+000  0.000000000000E+000  0.000000000000E+000  0.000000000000E+000  0.000000000000E+000 -1.000000000000E-002  0.000000000000E+000  0.000000000000E+000  0.000000000000E+000  0.000000000000E+000  0.000000000000E+000  0.000000000000E+000  0.000000000000E+000  0.000000000000E+000  0.000000000000E+000  0.000000000000E+000  0.000000000000E+000  0.000000000000E+000  0.000000000000E+000  0.000000000000E+000  0.000000000000E+000  0.000000000000E+000  0.000000000000E+000  0.000000000000E+000
   -2.690726854595E-005 -1.844669184563E-005  0.000000000000E+000  0.000000000000E+000  4.749023675259E-022  1.064058344648E-021  1.540365003379E-021  5.003976405999E-021  0.000000000000E+000  0.000000000000E+000  0.000000000000E+000  0.000000000000E+000 -1.000000000000E-002  0.000000000000E+000  0.000000000000E+000  0.000000000000E+000  0.000000000000E+000  0.000000000000E+000  5.614907659744E-020  5.614907659744E-020  0.000000000000E+000  1.724552473162E-020  4.908539872226E-019  4.908539872226E-019  0.000000000000E+000  1.240457075229E-019  3.248078195268E-019  3.248078195268E-019  0.000000000000E+000  1.746964286198E-020
    4.556653814068E-005 -3.556966702179E-006  0.000000000000E+000  0.000000000000E+000 -1.206862554487E-022 -2.703663083859E-022 -4.240811054494E-022 -1.378153712255E-021  0.000000000000E+000  0.000000000000E+000  0.000000000000E+000  0.000000000000E+000  0.000000000000E+000 -1.000000000000E-002  0.000000000000E+000  0.000000000000E+000  0.000000000000E+000  0.000000000000E+000 -1.431164891224E-020 -1.431164891224E-020  0.000000000000E+000 -4.392013286275E-021 -1.349947942867E-019 -1.349947942867E-019  0.000000000000E+000 -3.414447915698E-020 -7.904961848753E-020 -7.904961848753E-020  0.000000000000E+000 -4.271557506885E-021
    1.320790456296E-004 -5.951734803886E-005  0.000000000000E+000  0.000000000000E+000  3.746751629460E-022  8.395410132683E-022  1.757013645072E-021  5.713682091979E-021  0.000000000000E+000  0.000000000000E+000  0.000000000000E+000  0.000000000000E+000  0.000000000000E+000  0.000000000000E+000 -1.000000000000E-002  0.000000000000E+000  0.000000000000E+000  0.000000000000E+000  4.448655235106E-020  4.448655235106E-020  0.000000000000E+000  1.366541675376E-020  5.583502548870E-019  5.583502548870E-019  0.000000000000E+000  1.414983632222E-019  4.101596644348E-019  4.101596644348E-019  0.000000000000E+000  2.249401509376E-020
   -3.563404846808E-005 -2.082145106302E-005  0.000000000000E+000  0.000000000000E+000 -6.045507602674E-023 -1.355951413845E-022 -3.193464093422E-022 -1.038822523277E-021  0.000000000000E+000  0.000000000000E+000  0.000000000000E+000  0.000000000000E+000  0.000000000000E+000  0.000000000000E+000  0.000000000000E+000 -1.000000000000E-002  0.000000000000E+000  0.000000000000E+000 -7.136592049015E-021 -7.136592049015E-021  0.000000000000E+000 -2.202897872497E-021 -1.014317152687E-019 -1.014317152687E-019  0.000000000000E+000 -2.573773547884E-020 -4.945353400877E-020 -4.945353400877E-020  0.000000000000E+000 -2.791932907410E-021
   -1.071793577127E-004  4.150928869970E-003  0.000000000000E+000  0.000000000000E+000  2.671430281758E-021  5.941895233488E-021  1.455739200900E-020  4.748878600664E-020  0.000000000000E+000  0.000000000000E+000  0.000000000000E+000  0.000000000000E+000  0.000000000000E+000  0.000000000000E+000  0.000000000000E+000  0.000000000000E+000 -1.000000000000E-002  0.000000000000E+000  3.453319775514E-019  3.453319775514E-019  0.000000000000E+000  1.023794231277E-019  4.576028211922E-018  4.576028211922E-018  0.000000000000E+000  1.166336375339E-018  4.017581586781E-018  4.017581586781E-018  0.000000000000E+000  2.182198882681E-019
    0.000000000000E+000  0.000000000000E+000  0.000000000000E+000  0.000000000000E+000  0.000000000000E+000  0.000000000000E+000  0.000000000000E+000  0.000000000000E+000  0.000000000000E+000  0.000000000000E+000  0.000000000000E+000  0.000000000000E+000  0.000000000000E+000  0.000000000000E+000  0.000000000000E+000  0.000000000000E+000  0.000000000000E+000 -1.000000000000E-002  0.000000000000E+000  0.000000000000E+000  0.000000000000E+000  0.000000000000E+000  0.000000000000E+000  0.000000000000E+000  0.000000000000E+000  0.000000000000E+000  0.000000000000E+000  0.000000000000E+000  0.000000000000E+000  0.000000000000E+000