
Linearized model: Predictions were generated on 02-May-2024 at 21:57:07 using OpenFAST, compiled on May  2 2024 at 21:38:56 as a 64-bit application using double precision at commit -128-NOTFOUND
 linked with  NWTC Subroutine Library; ElastoDyn; InflowWind; AeroDyn

Description from the FAST input file: One Blade, 4 aero-stations, Linearization with continuous States AeroDynamic modules

Simulation information:
   Simulation time:                     1.1000 s
   Rotor Speed:                         1.2671 rad/s
   Azimuth:                             1.3938 rad
   Wind Speed:                         13.0000 m/s
   Number of continuous states:        30
   Number of discrete states:           0
   Number of constraint states:         0
   Number of inputs:                   14
   Number of outputs:                  31
   Jacobians included in this file?    No

Order of continuous states:
   Row/Column Operating Point                                                   Rotating Frame? Derivative Order Description
   ---------- ---------------                                                   --------------- ---------------- -----------
          1    6.242751928096E+000                                                     T               2         ED 1st flapwise bending-mode DOF of blade 1 (internal DOF index = DOF_BF(1,1)), m
          2   -9.974515858730E+000                                                     T               2         ED First time derivative of 1st flapwise bending-mode DOF of blade 1 (internal DOF index = DOF_BF(1,1)), m/s
          3   -1.303013002991E+001                                                     T               2         AD vind (axial) at blade 1, node 1, m/s
          4    0.000000000000E+000                                                     T               2         AD vind (tangential) at blade 1, node 1, m/s
          5   -8.932115540762E-001                                                     T               2         AD vind (axial) at blade 1, node 2, m/s
          6    3.691095910346E-001                                                     T               2         AD vind (tangential) at blade 1, node 2, m/s
          7   -1.265416506494E+000                                                     T               2         AD vind (axial) at blade 1, node 3, m/s
          8    2.846933033202E-001                                                     T               2         AD vind (tangential) at blade 1, node 3, m/s
          9   -1.411484960404E+001                                                     T               2         AD vind (axial) at blade 1, node 4, m/s
         10    0.000000000000E+000                                                     T               2         AD vind (tangential) at blade 1, node 4, m/s
         11   -5.212116040265E+000                                                     T               2         AD First time derivative of vind (axial) at blade 1, node 1, m/s/s
         12    0.000000000000E+000                                                     T               2         AD First time derivative of vind (tangential) at blade 1, node 1, m/s/s
         13   -3.570808361857E-001                                                     T               2         AD First time derivative of vind (axial) at blade 1, node 2, m/s/s
         14    1.476648770230E-001                                                     T               2         AD First time derivative of vind (tangential) at blade 1, node 2, m/s/s
         15   -5.061847776620E-001                                                     T               2         AD First time derivative of vind (axial) at blade 1, node 3, m/s/s
         16    1.142678553832E-001                                                     T               2         AD First time derivative of vind (tangential) at blade 1, node 3, m/s/s
         17   -5.749536544327E+000                                                     T               2         AD First time derivative of vind (axial) at blade 1, node 4, m/s/s
         18    0.000000000000E+000                                                     T               2         AD First time derivative of vind (tangential) at blade 1, node 4, m/s/s
         19    6.471830915740E-002                                                     T               1         AD x1 blade 1, node 2, rad
         20    1.592984974158E-001                                                     T               1         AD x2 blade 1, node 2, rad
         21    2.278794997826E+000                                                     T               1         AD x3 blade 1, node 2, -
         22    3.756940943559E-001                                                     T               1         AD x4 blade 1, node 2, -
         23    5.547220157810E-002                                                     T               1         AD x1 blade 1, node 3, rad
         24    1.490632350145E-001                                                     T               1         AD x2 blade 1, node 3, rad
         25    2.125014894410E+000                                                     T               1         AD x3 blade 1, node 3, -
         26    4.484200784348E-001                                                     T               1         AD x4 blade 1, node 3, -
         27   -9.109217300658E-004                                                     T               1         AD x1 blade 1, node 4, rad
         28   -1.940247208816E-003                                                     T               1         AD x2 blade 1, node 4, rad
         29    5.788795657093E-001                                                     T               1         AD x3 blade 1, node 4, -
         30    5.201174861141E-001                                                     T               1         AD x4 blade 1, node 4, -

Order of continuous state derivatives:
   Row/Column Operating Point                                                   Rotating Frame? Derivative Order Description
   ---------- ---------------                                                   --------------- ---------------- -----------
          1   -9.974515858730E+000                                                     T               2         First time derivative of ED 1st flapwise bending-mode DOF of blade 1 (internal DOF index = DOF_BF(1,1)), m/s
          2   -6.361263817209E+000                                                     T               2         First time derivative of ED First time derivative of 1st flapwise bending-mode DOF of blade 1 (internal DOF index = DOF_BF(1,1)), m/s/s
          3    1.160448901599E-003                                                     T               2         First time derivative of AD vind (axial) at blade 1, node 1, m/s/s
          4    0.000000000000E+000                                                     T               2         First time derivative of AD vind (tangential) at blade 1, node 1, m/s/s
          5   -6.144971787751E-004                                                     T               2         First time derivative of AD vind (axial) at blade 1, node 2, m/s/s
          6    1.569916635192E-004                                                     T               2         First time derivative of AD vind (tangential) at blade 1, node 2, m/s/s
          7    1.726189333175E-003                                                     T               2         First time derivative of AD vind (axial) at blade 1, node 3, m/s/s
          8    1.076844736206E-003                                                     T               2         First time derivative of AD vind (tangential) at blade 1, node 3, m/s/s
          9   -4.150855411217E-001                                                     T               2         First time derivative of AD vind (axial) at blade 1, node 4, m/s/s
         10    0.000000000000E+000                                                     T               2         First time derivative of AD vind (tangential) at blade 1, node 4, m/s/s
         11    3.026698257929E-004                                                     T               2         First time derivative of AD First time derivative of vind (axial) at blade 1, node 1, m/s/s/s
         12    0.000000000000E+000                                                     T               2         First time derivative of AD First time derivative of vind (tangential) at blade 1, node 1, m/s/s/s
         13   -1.476409264636E-004                                                     T               2         First time derivative of AD First time derivative of vind (axial) at blade 1, node 2, m/s/s/s
         14    3.650089087721E-005                                                     T               2         First time derivative of AD First time derivative of vind (tangential) at blade 1, node 2, m/s/s/s
         15    2.994898030936E-004                                                     T               2         First time derivative of AD First time derivative of vind (axial) at blade 1, node 3, m/s/s/s
         16    1.801321681938E-004                                                     T               2         First time derivative of AD First time derivative of vind (tangential) at blade 1, node 3, m/s/s/s
         17   -3.424746851871E-002                                                     T               2         First time derivative of AD First time derivative of vind (axial) at blade 1, node 4, m/s/s/s
         18    0.000000000000E+000                                                     T               2         First time derivative of AD First time derivative of vind (tangential) at blade 1, node 4, m/s/s/s
         19    1.045631152871E-002                                                     T               1         First time derivative of AD x1 blade 1, node 2, rad/s
         20    2.141554444204E-002                                                     T               1         First time derivative of AD x2 blade 1, node 2, rad/s
         21    3.728826211654E-001                                                     T               1         First time derivative of AD x3 blade 1, node 2, -/s
         22   -1.341684931122E-001                                                     T               1         First time derivative of AD x4 blade 1, node 2, -/s
         23    5.323393918432E-002                                                     T               1         First time derivative of AD x1 blade 1, node 3, rad/s
         24    6.081938793065E-002                                                     T               1         First time derivative of AD x2 blade 1, node 3, rad/s
         25    1.163483860600E+000                                                     T               1         First time derivative of AD x3 blade 1, node 3, -/s
         26   -5.588089013627E-001                                                     T               1         First time derivative of AD x4 blade 1, node 3, -/s
         27    1.696822274966E-003                                                     T               1         First time derivative of AD x1 blade 1, node 4, rad/s
         28    4.029497832432E-003                                                     T               1         First time derivative of AD x2 blade 1, node 4, rad/s
         29    3.100594838379E-002                                                     T               1         First time derivative of AD x3 blade 1, node 4, -/s
         30    1.202670712509E-002                                                     T               1         First time derivative of AD x4 blade 1, node 4, -/s

Order of inputs:
     Column   Operating Point                                                   Rotating Frame? Derivative Order Description
   ---------- ---------------                                                   --------------- ---------------- -----------
          1    1.300000000000E+001                                                     F               0         IfW Extended input: horizontal wind speed (steady/uniform wind), m/s
          2    2.000000000000E-001                                                     F               0         IfW Extended input: vertical power-law shear exponent, -
          3    0.000000000000E+000                                                     F               0         IfW Extended input: propagation direction, rad
          4    0.000000000000E+000                                                     T               0         ED Blade 1 pitch command, rad
          5    0.000000000000E+000                                                     F               0         ED Yaw moment, Nm
          6    0.000000000000E+000                                                     F               0         ED Generator torque, Nm
          7    0.000000000000E+000                                                     F               0         ED Extended input: collective blade-pitch command, rad
          8    0.000000000000E+000                                                     T               0         AD User property on blade 1, node 1, -
          9    0.000000000000E+000                                                     T               0         AD User property on blade 1, node 2, -
         10    0.000000000000E+000                                                     T               0         AD User property on blade 1, node 3, -
         11    0.000000000000E+000                                                     T               0         AD User property on blade 1, node 4, -
         12    1.300000000000E+001                                                     F               0         AD Extended input: horizontal wind speed (steady/uniform wind), m/s
         13    2.000000000000E-001                                                     F               0         AD Extended input: vertical power-law shear exponent, -
         14    0.000000000000E+000                                                     F               0         AD Extended input: propagation direction, rad

Order of outputs:
        Row   Operating Point                                                   Rotating Frame? Derivative Order Description
   ---------- ---------------                                                   --------------- ---------------- -----------
          1    1.300000000000E+001                                                     F               0         IfW Wind1VelX, (m/s)
          2   -0.000000000000E+000                                                     F               0         IfW Wind1VelY, (m/s)
          3    0.000000000000E+000                                                     F               0         IfW Wind1VelZ, (m/s)
          4    3.202937562789E+002                                                     F               0         ED TwrBsFxt, (kN)
          5    3.176541141602E+004                                                     F               0         ED TwrBsMyt, (kN-m)
          6    6.242751928096E+000                                                     F               0         ED Q_B1F1, (m)
          7    8.777106464280E-002                                                     F               0         AD RtAeroCp, (-)
          8    1.384566016694E-001                                                     F               0         AD RtAeroCt, (-)
          9    1.509533769636E+000                                                     T               0         AD B1N1Cl, (-)
         10    7.500525638911E-002                                                     T               0         AD B1N1AxInd, (-)
         11    5.011790475313E-003                                                     T               0         AD B1N1TnInd, (-)
         12    0.000000000000E+000                                                     T               0         AD AB1N001UA_Flag, (-)
         13    1.000000000000E+000                                                     T               0         AD AB1N002UA_Flag, (-)
         14    1.000000000000E+000                                                     T               0         AD AB1N003UA_Flag, (-)
         15    1.000000000000E+000                                                     T               0         AD AB1N004UA_Flag, (-)
         16    0.000000000000E+000                                                     T               0         AD AB1N001UA_x1, (rad)
         17    6.471830915740E-002                                                     T               0         AD AB1N002UA_x1, (rad)
         18    5.547220157810E-002                                                     T               0         AD AB1N003UA_x1, (rad)
         19   -9.109217300658E-004                                                     T               0         AD AB1N004UA_x1, (rad)
         20    0.000000000000E+000                                                     T               0         AD AB1N001UA_x2, (rad)
         21    1.592984974158E-001                                                     T               0         AD AB1N002UA_x2, (rad)
         22    1.490632350145E-001                                                     T               0         AD AB1N003UA_x2, (rad)
         23   -1.940247208816E-003                                                     T               0         AD AB1N004UA_x2, (rad)
         24    0.000000000000E+000                                                     T               0         AD AB1N001UA_x3, (-)
         25    2.278794997826E+000                                                     T               0         AD AB1N002UA_x3, (-)
         26    2.125014894410E+000                                                     T               0         AD AB1N003UA_x3, (-)
         27    5.788795657093E-001                                                     T               0         AD AB1N004UA_x3, (-)
         28    0.000000000000E+000                                                     T               0         AD AB1N001UA_x4, (-)
         29    3.756940943559E-001                                                     T               0         AD AB1N002UA_x4, (-)
         30    4.484200784348E-001                                                     T               0         AD AB1N003UA_x4, (-)
         31    5.201174861141E-001                                                     T               0         AD AB1N004UA_x4, (-)


Linearized state matrices:

A: 30 x 30
    0.000000000000E+000  1.000000000000E+000  0.000000000000E+000  0.000000000000E+000  0.000000000000E+000  0.000000000000E+000  0.000000000000E+000  0.000000000000E+000  0.000000000000E+000  0.000000000000E+000  0.000000000000E+000  0.000000000000E+000  0.000000000000E+000  0.000000000000E+000  0.000000000000E+000  0.000000000000E+000  0.000000000000E+000  0.000000000000E+000  0.000000000000E+000  0.000000000000E+000  0.000000000000E+000  0.000000000000E+000  0.000000000000E+000  0.000000000000E+000  0.000000000000E+000  0.000000000000E+000  0.000000000000E+000  0.000000000000E+000  0.000000000000E+000  0.000000000000E+000
   -1.600480890736E+001 -4.958693663510E-002  0.000000000000E+000  0.000000000000E+000  1.861746095178E-001  4.168900930627E-001  6.215283630638E-001  2.019751688243E+000  0.000000000000E+000  0.000000000000E+000  0.000000000000E+000  0.000000000000E+000  0.000000000000E+000  0.000000000000E+000  0.000000000000E+000  0.000000000000E+000  0.000000000000E+000  0.000000000000E+000  2.209900091378E+001  2.209900091378E+001  0.000000000000E+000  6.761189276000E+000  1.978498724918E+002  1.978498724918E+002  0.000000000000E+000  4.996067043192E+001  1.771222790413E+002  1.771222790413E+002  0.000000000000E+000  9.402117168425E+000
    1.825100276045E-020  1.131664643960E-021 -2.565071974878E-002  0.000000000000E+000 -3.772757950182E-024 -8.398169662836E-024 -8.292692744872E-023 -2.655902613781E-022  0.000000000000E+000  0.000000000000E+000  2.565071974878E-002  0.000000000000E+000  0.000000000000E+000  0.000000000000E+000  0.000000000000E+000  0.000000000000E+000  0.000000000000E+000  0.000000000000E+000 -4.840418373708E-022 -4.840418373708E-022  0.000000000000E+000 -1.439211383049E-022 -2.762215074911E-020 -2.762215074911E-020  0.000000000000E+000 -6.778586237588E-021  7.385674063100E-021  7.385674063100E-021  0.000000000000E+000  4.616871086208E-022
    0.000000000000E+000  0.000000000000E+000  0.000000000000E+000 -2.565071974878E-002  0.000000000000E+000  0.000000000000E+000  0.000000000000E+000  0.000000000000E+000  0.000000000000E+000  0.000000000000E+000  0.000000000000E+000  2.565071974878E-002  0.000000000000E+000  0.000000000000E+000  0.000000000000E+000  0.000000000000E+000  0.000000000000E+000  0.000000000000E+000  0.000000000000E+000  0.000000000000E+000  0.000000000000E+000  0.000000000000E+000  0.000000000000E+000  0.000000000000E+000  0.000000000000E+000  0.000000000000E+000  0.000000000000E+000  0.000000000000E+000  0.000000000000E+000  0.000000000000E+000
   -9.717508761140E-006 -7.858363816740E-005  0.000000000000E+000  0.000000000000E+000 -2.840072093401E-002 -1.557047306385E-021 -8.636545650740E-021 -2.810533551750E-020  0.000000000000E+000  0.000000000000E+000  0.000000000000E+000  0.000000000000E+000  2.840072093401E-002  0.000000000000E+000  0.000000000000E+000  0.000000000000E+000  0.000000000000E+000  0.000000000000E+000 -8.837822590150E-020 -8.837822590150E-020  0.000000000000E+000 -2.627153299917E-020 -2.740738715626E-018 -2.740738715626E-018  0.000000000000E+000 -6.952509012553E-019 -1.475944023787E-018 -1.475944023787E-018  0.000000000000E+000 -7.637715854214E-020
   -2.634628517488E-006 -1.515359459238E-005  0.000000000000E+000  0.000000000000E+000  3.484750037527E-022 -2.840072093401E-002  3.306187751136E-021  1.075950630507E-020  0.000000000000E+000  0.000000000000E+000  0.000000000000E+000  0.000000000000E+000  0.000000000000E+000  2.840072093401E-002  0.000000000000E+000  0.000000000000E+000  0.000000000000E+000  0.000000000000E+000  4.333693023935E-020  4.333693023935E-020  0.000000000000E+000  1.297536930930E-020  1.048946272914E-018  1.048946272914E-018  0.000000000000E+000  2.660737572442E-019  6.012603866242E-019  6.012603866242E-019  0.000000000000E+000  3.117754310902E-020
   -5.479226664336E-005 -3.433933376376E-004  0.000000000000E+000  0.000000000000E+000 -3.968294469171E-021 -8.857594435609E-021 -3.846401513958E-002 -9.311228400044E-020  0.000000000000E+000  0.000000000000E+000  0.000000000000E+000  0.000000000000E+000  0.000000000000E+000  0.000000000000E+000  3.846401513958E-002  0.000000000000E+000  0.000000000000E+000  0.000000000000E+000 -4.874055139525E-019 -4.874055139525E-019  0.000000000000E+000 -1.467758181442E-019 -9.089571681983E-018 -9.089571681983E-018  0.000000000000E+000 -2.305309217994E-018 -6.114964386338E-018 -6.114964386338E-018  0.000000000000E+000 -3.171890094457E-019
   -1.425523228714E-005 -1.201317188490E-004  0.000000000000E+000  0.000000000000E+000  6.877905724300E-022  1.531537908029E-021  6.731886447675E-021 -3.846401513958E-002  0.000000000000E+000  0.000000000000E+000  0.000000000000E+000  0.000000000000E+000  0.000000000000E+000  0.000000000000E+000  0.000000000000E+000  3.846401513958E-002  0.000000000000E+000  0.000000000000E+000  8.659679118169E-020  8.659679118169E-020  0.000000000000E+000  2.578404958694E-020  2.139364193469E-018  2.139364193469E-018  0.000000000000E+000  5.424735454950E-019  1.581556920496E-018  1.581556920496E-018  0.000000000000E+000  8.234795633928E-020
    8.631279394988E-003  4.789508196268E-002  0.000000000000E+000  0.000000000000E+000 -7.679670363808E-020 -1.720621045512E-019 -5.385727319294E-019 -1.754888240482E-018 -7.692307692308E-002  0.000000000000E+000  0.000000000000E+000  0.000000000000E+000  0.000000000000E+000  0.000000000000E+000  0.000000000000E+000  0.000000000000E+000  7.692307692308E-002  0.000000000000E+000 -9.049978311919E-018 -9.049978311919E-018  0.000000000000E+000 -2.776809715439E-018 -1.701651645271E-016 -1.701651645271E-016  0.000000000000E+000 -4.326858133216E-017 -4.420784543319E-017 -4.420784543319E-017  0.000000000000E+000 -2.188594127213E-018
    0.000000000000E+000  0.000000000000E+000  0.000000000000E+000  0.000000000000E+000  0.000000000000E+000  0.000000000000E+000  0.000000000000E+000  0.000000000000E+000  0.000000000000E+000 -7.692307692308E-002  0.000000000000E+000  0.000000000000E+000  0.000000000000E+000  0.000000000000E+000  0.000000000000E+000  0.000000000000E+000  0.000000000000E+000  7.692307692308E-002  0.000000000000E+000  0.000000000000E+000  0.000000000000E+000  0.000000000000E+000  0.000000000000E+000  0.000000000000E+000  0.000000000000E+000  0.000000000000E+000  0.000000000000E+000  0.000000000000E+000  0.000000000000E+000  0.000000000000E+000
    4.743467354055E-021  2.941216088132E-022  0.000000000000E+000  0.000000000000E+000 -9.805463516729E-025 -2.182698898886E-024 -2.155285264510E-023 -6.902737076561E-023  0.000000000000E+000  0.000000000000E+000 -1.000000000000E-002  0.000000000000E+000  0.000000000000E+000  0.000000000000E+000  0.000000000000E+000  0.000000000000E+000  0.000000000000E+000  0.000000000000E+000 -1.258033152294E-022 -1.258033152294E-022  0.000000000000E+000 -3.740535410885E-023 -7.179045011703E-021 -7.179045011703E-021  0.000000000000E+000 -1.761766350396E-021  1.919549531969E-021  1.919549531969E-021  0.000000000000E+000  1.199932823591E-022
    0.000000000000E+000  0.000000000000E+000  0.000000000000E+000  0.000000000000E+000  0.000000000000E+000  0.000000000000E+000  0.000000000000E+000  0.000000000000E+000  0.000000000000E+000  0.000000000000E+000  0.000000000000E+000 -1.000000000000E-002  0.000000000000E+000  0.000000000000E+000  0.000000000000E+000  0.000000000000E+000  0.000000000000E+000  0.000000000000E+000  0.000000000000E+000  0.000000000000E+000  0.000000000000E+000  0.000000000000E+000  0.000000000000E+000  0.000000000000E+000  0.000000000000E+000  0.000000000000E+000  0.000000000000E+000  0.000000000000E+000  0.000000000000E+000  0.000000000000E+000
   -2.281047438601E-006 -1.844639515783E-005  0.000000000000E+000  0.000000000000E+000 -1.641962397698E-022 -3.654947844464E-022 -2.027306670796E-021 -6.597329127149E-021  0.000000000000E+000  0.000000000000E+000  0.000000000000E+000  0.000000000000E+000 -1.000000000000E-002  0.000000000000E+000  0.000000000000E+000  0.000000000000E+000  0.000000000000E+000  0.000000000000E+000 -2.074553579276E-020 -2.074553579276E-020  0.000000000000E+000 -6.166869979630E-021 -6.433495642579E-019 -6.433495642579E-019  0.000000000000E+000 -1.632002940749E-019 -3.464569384738E-019 -3.464569384738E-019  0.000000000000E+000 -1.792845534206E-020
   -6.184416993286E-007 -3.557091532428E-006  0.000000000000E+000  0.000000000000E+000  8.179956759134E-023  1.823637398251E-022  7.760807102555E-022  2.525641592002E-021  0.000000000000E+000  0.000000000000E+000  0.000000000000E+000  0.000000000000E+000  0.000000000000E+000 -1.000000000000E-002  0.000000000000E+000  0.000000000000E+000  0.000000000000E+000  0.000000000000E+000  1.017273008434E-020  1.017273008434E-020  0.000000000000E+000  3.045784022982E-021  2.462252690349E-019  2.462252690349E-019  0.000000000000E+000  6.245704298901E-020  1.411373530555E-019  1.411373530555E-019  0.000000000000E+000  7.318486311540E-021
   -9.496714690259E-006 -5.951767929781E-005  0.000000000000E+000  0.000000000000E+000 -6.877934184753E-022 -1.535217510612E-021 -4.960227016474E-021 -1.613842334843E-020  0.000000000000E+000  0.000000000000E+000  0.000000000000E+000  0.000000000000E+000  0.000000000000E+000  0.000000000000E+000 -1.000000000000E-002  0.000000000000E+000  0.000000000000E+000  0.000000000000E+000 -8.447818256167E-020 -8.447818256167E-020  0.000000000000E+000 -2.543950366969E-020 -1.575424310922E-018 -1.575424310922E-018  0.000000000000E+000 -3.995612019230E-019 -1.059858912137E-018 -1.059858912137E-018  0.000000000000E+000 -5.497588820697E-020
   -2.470747829351E-006 -2.082149049582E-005  0.000000000000E+000  0.000000000000E+000  1.192093562314E-022  2.654494774698E-022  1.166785184065E-021  3.795631065977E-021  0.000000000000E+000  0.000000000000E+000  0.000000000000E+000  0.000000000000E+000  0.000000000000E+000  0.000000000000E+000  0.000000000000E+000 -1.000000000000E-002  0.000000000000E+000  0.000000000000E+000  1.500914397824E-020  1.500914397824E-020  0.000000000000E+000  4.468947489989E-021  3.707992497586E-019  3.707992497586E-019  0.000000000000E+000  9.402269342334E-020  2.741188813763E-019  2.741188813763E-019  0.000000000000E+000  1.427272669281E-020
    7.480442142323E-004  4.150907103432E-003  0.000000000000E+000  0.000000000000E+000 -6.655714315300E-021 -1.491204906111E-020 -4.667630343388E-020 -1.520903141751E-019  0.000000000000E+000  0.000000000000E+000  0.000000000000E+000  0.000000000000E+000  0.000000000000E+000  0.000000000000E+000  0.000000000000E+000  0.000000000000E+000 -1.000000000000E-002  0.000000000000E+000 -7.843314536997E-019 -7.843314536997E-019  0.000000000000E+000 -2.406568420047E-019 -1.474764759235E-017 -1.474764759235E-017  0.000000000000E+000 -3.749943715454E-018 -3.831346604210E-018 -3.831346604210E-018  0.000000000000E+000 -1.896781576918E-019