
Linearized model: Predictions were generated on 03-Aug-2023 at 19:37:32 using OpenFAST, compiled on Aug  3 2023 at 19:14:33 as a 64-bit application using double precision at commit -128-NOTFOUND
 linked with  NWTC Subroutine Library; ElastoDyn; InflowWind; AeroDyn

Description from the FAST input file: One Blade, 4 aero-stations, Linearization with continuous States AeroDynamic modules

Simulation information:
   Simulation time:                     1.1000 s
   Rotor Speed:                         1.2671 rad/s
   Azimuth:                             1.3938 rad
   Wind Speed:                         13.0000 m/s
   Number of continuous states:        30
   Number of discrete states:           0
   Number of constraint states:         0
   Number of inputs:                   11
   Number of outputs:                  31
   Jacobians included in this file?    No

Order of continuous states:
   Row/Column Operating Point                                                   Rotating Frame? Derivative Order Description
   ---------- ---------------                                                   --------------- ---------------- -----------
          1    6.244134425386E+000                                                     T               2         ED 1st flapwise bending-mode DOF of blade 1 (internal DOF index = DOF_BF(1,1)), m
          2   -9.976563319878E+000                                                     T               2         ED First time derivative of 1st flapwise bending-mode DOF of blade 1 (internal DOF index = DOF_BF(1,1)), m/s
          3   -1.303013675326E+001                                                     T               2         AD vind (axial) at blade 1, node 1, m/s
          4    0.000000000000E+000                                                     T               2         AD vind (tangential) at blade 1, node 1, m/s
          5   -8.932063264122E-001                                                     T               2         AD vind (axial) at blade 1, node 2, m/s
          6    3.691117516480E-001                                                     T               2         AD vind (tangential) at blade 1, node 2, m/s
          7   -1.265427801316E+000                                                     T               2         AD vind (axial) at blade 1, node 3, m/s
          8    2.846962294847E-001                                                     T               2         AD vind (tangential) at blade 1, node 3, m/s
          9   -1.411522741177E+001                                                     T               2         AD vind (axial) at blade 1, node 4, m/s
         10    0.000000000000E+000                                                     T               2         AD vind (tangential) at blade 1, node 4, m/s
         11   -5.212118268916E+000                                                     T               2         AD First time derivative of vind (axial) at blade 1, node 1, m/s/s
         12    0.000000000000E+000                                                     T               2         AD First time derivative of vind (tangential) at blade 1, node 1, m/s/s
         13   -3.570780318411E-001                                                     T               2         AD First time derivative of vind (axial) at blade 1, node 2, m/s/s
         14    1.476657485414E-001                                                     T               2         AD First time derivative of vind (tangential) at blade 1, node 2, m/s/s
         15   -5.061861595242E-001                                                     T               2         AD First time derivative of vind (axial) at blade 1, node 3, m/s/s
         16    1.142691227039E-001                                                     T               2         AD First time derivative of vind (tangential) at blade 1, node 3, m/s/s
         17   -5.749613778131E+000                                                     T               2         AD First time derivative of vind (axial) at blade 1, node 4, m/s/s
         18    0.000000000000E+000                                                     T               2         AD First time derivative of vind (tangential) at blade 1, node 4, m/s/s
         19    6.474583467938E-002                                                     T               1         AD x1 blade 1, node 2, rad
         20    1.593853605872E-001                                                     T               1         AD x2 blade 1, node 2, rad
         21    2.279580642042E+000                                                     T               1         AD x3 blade 1, node 2, -
         22    3.754760926309E-001                                                     T               1         AD x4 blade 1, node 2, -
         23    5.550536786734E-002                                                     T               1         AD x1 blade 1, node 3, rad
         24    1.491630584850E-001                                                     T               1         AD x2 blade 1, node 3, rad
         25    2.126007763976E+000                                                     T               1         AD x3 blade 1, node 3, -
         26    4.481476662486E-001                                                     T               1         AD x4 blade 1, node 3, -
         27   -9.113373184208E-004                                                     T               1         AD x1 blade 1, node 4, rad
         28   -1.940922134876E-003                                                     T               1         AD x2 blade 1, node 4, rad
         29    5.788719681581E-001                                                     T               1         AD x3 blade 1, node 4, -
         30    5.201138959342E-001                                                     T               1         AD x4 blade 1, node 4, -

Order of continuous state derivatives:
   Row/Column Operating Point                                                   Rotating Frame? Derivative Order Description
   ---------- ---------------                                                   --------------- ---------------- -----------
          1   -9.976563319878E+000                                                     T               2         First time derivative of ED 1st flapwise bending-mode DOF of blade 1 (internal DOF index = DOF_BF(1,1)), m/s
          2   -6.369782186015E+000                                                     T               2         First time derivative of ED First time derivative of 1st flapwise bending-mode DOF of blade 1 (internal DOF index = DOF_BF(1,1)), m/s/s
          3    1.160564194006E-003                                                     T               2         First time derivative of AD vind (axial) at blade 1, node 1, m/s/s
          4    0.000000000000E+000                                                     T               2         First time derivative of AD vind (tangential) at blade 1, node 1, m/s/s
          5   -6.144056086580E-004                                                     T               2         First time derivative of AD vind (axial) at blade 1, node 2, m/s/s
          6    1.569777917244E-004                                                     T               2         First time derivative of AD vind (tangential) at blade 1, node 2, m/s/s
          7    1.727229856400E-003                                                     T               2         First time derivative of AD vind (axial) at blade 1, node 3, m/s/s
          8    1.076999096818E-003                                                     T               2         First time derivative of AD vind (tangential) at blade 1, node 3, m/s/s
          9   -4.151485418689E-001                                                     T               2         First time derivative of AD vind (axial) at blade 1, node 4, m/s/s
         10    0.000000000000E+000                                                     T               2         First time derivative of AD vind (tangential) at blade 1, node 4, m/s/s
         11    3.026921122998E-004                                                     T               2         First time derivative of AD First time derivative of vind (axial) at blade 1, node 1, m/s/s/s
         12    0.000000000000E+000                                                     T               2         First time derivative of AD First time derivative of vind (tangential) at blade 1, node 1, m/s/s/s
         13   -1.476313196610E-004                                                     T               2         First time derivative of AD First time derivative of vind (axial) at blade 1, node 2, m/s/s/s
         14    3.649751345276E-005                                                     T               2         First time derivative of AD First time derivative of vind (tangential) at blade 1, node 2, m/s/s/s
         15    2.996178810644E-004                                                     T               2         First time derivative of AD First time derivative of vind (axial) at blade 1, node 3, m/s/s/s
         16    1.801573080632E-004                                                     T               2         First time derivative of AD First time derivative of vind (tangential) at blade 1, node 3, m/s/s/s
         17   -3.425416007162E-002                                                     T               2         First time derivative of AD First time derivative of vind (axial) at blade 1, node 4, m/s/s/s
         18    0.000000000000E+000                                                     T               2         First time derivative of AD First time derivative of vind (tangential) at blade 1, node 4, m/s/s/s
         19    1.039784517752E-002                                                     T               1         First time derivative of AD x1 blade 1, node 2, rad/s
         20    2.070527872942E-002                                                     T               1         First time derivative of AD x2 blade 1, node 2, rad/s
         21    3.737934683277E-001                                                     T               1         First time derivative of AD x3 blade 1, node 2, -/s
         22   -1.343768627684E-001                                                     T               1         First time derivative of AD x4 blade 1, node 2, -/s
         23    5.307328631011E-002                                                     T               1         First time derivative of AD x1 blade 1, node 3, rad/s
         24    5.893215694778E-002                                                     T               1         First time derivative of AD x2 blade 1, node 3, rad/s
         25    1.164211755397E+000                                                     T               1         First time derivative of AD x3 blade 1, node 3, -/s
         26   -5.603511115694E-001                                                     T               1         First time derivative of AD x4 blade 1, node 3, -/s
         27    1.699594753603E-003                                                     T               1         First time derivative of AD x1 blade 1, node 4, rad/s
         28    4.036617261241E-003                                                     T               1         First time derivative of AD x2 blade 1, node 4, rad/s
         29    3.107582461802E-002                                                     T               1         First time derivative of AD x3 blade 1, node 4, -/s
         30    1.205174153115E-002                                                     T               1         First time derivative of AD x4 blade 1, node 4, -/s

Order of inputs:
     Column   Operating Point                                                   Rotating Frame? Derivative Order Description
   ---------- ---------------                                                   --------------- ---------------- -----------
          1    1.300000000000E+001                                                     F               0         IfW Extended input: horizontal wind speed (steady/uniform wind), m/s
          2    2.000000000000E-001                                                     F               0         IfW Extended input: vertical power-law shear exponent, -
          3    0.000000000000E+000                                                     F               0         IfW Extended input: propagation direction, rad
          4    0.000000000000E+000                                                     T               0         ED Blade 1 pitch command, rad
          5    0.000000000000E+000                                                     F               0         ED Yaw moment, Nm
          6    0.000000000000E+000                                                     F               0         ED Generator torque, Nm
          7    0.000000000000E+000                                                     F               0         ED Extended input: collective blade-pitch command, rad
          8    0.000000000000E+000                                                     T               0         AD User property on blade 1, node 1, -
          9    0.000000000000E+000                                                     T               0         AD User property on blade 1, node 2, -
         10    0.000000000000E+000                                                     T               0         AD User property on blade 1, node 3, -
         11    0.000000000000E+000                                                     T               0         AD User property on blade 1, node 4, -

Order of outputs:
        Row   Operating Point                                                   Rotating Frame? Derivative Order Description
   ---------- ---------------                                                   --------------- ---------------- -----------
          1    1.300000000000E+001                                                     F               0         IfW Wind1VelX, (m/s)
          2   -0.000000000000E+000                                                     F               0         IfW Wind1VelY, (m/s)
          3    0.000000000000E+000                                                     F               0         IfW Wind1VelZ, (m/s)
          4    3.203653749401E+002                                                     F               0         ED TwrBsFxt, (kN)
          5    3.177217767304E+004                                                     F               0         ED TwrBsMyt, (kN-m)
          6    6.244134425386E+000                                                     F               0         ED Q_B1F1, (m)
          7    8.778440514270E-002                                                     F               0         AD RtAeroCp, (-)
          8    1.384668491423E-001                                                     F               0         AD RtAeroCt, (-)
          9    1.509845840052E+000                                                     T               0         AD B1N1Cl, (-)
         10    7.500247109693E-002                                                     T               0         AD B1N1AxInd, (-)
         11    5.011858374224E-003                                                     T               0         AD B1N1TnInd, (-)
         12    0.000000000000E+000                                                     T               0         AD AB1N001UA_Flag, (-)
         13    1.000000000000E+000                                                     T               0         AD AB1N002UA_Flag, (-)
         14    1.000000000000E+000                                                     T               0         AD AB1N003UA_Flag, (-)
         15    1.000000000000E+000                                                     T               0         AD AB1N004UA_Flag, (-)
         16    0.000000000000E+000                                                     T               0         AD AB1N001UA_x1, (rad)
         17    6.474583467938E-002                                                     T               0         AD AB1N002UA_x1, (rad)
         18    5.550536786734E-002                                                     T               0         AD AB1N003UA_x1, (rad)
         19   -9.113373184208E-004                                                     T               0         AD AB1N004UA_x1, (rad)
         20    0.000000000000E+000                                                     T               0         AD AB1N001UA_x2, (rad)
         21    1.593853605872E-001                                                     T               0         AD AB1N002UA_x2, (rad)
         22    1.491630584850E-001                                                     T               0         AD AB1N003UA_x2, (rad)
         23   -1.940922134876E-003                                                     T               0         AD AB1N004UA_x2, (rad)
         24    0.000000000000E+000                                                     T               0         AD AB1N001UA_x3, (-)
         25    2.279580642042E+000                                                     T               0         AD AB1N002UA_x3, (-)
         26    2.126007763976E+000                                                     T               0         AD AB1N003UA_x3, (-)
         27    5.788719681581E-001                                                     T               0         AD AB1N004UA_x3, (-)
         28    0.000000000000E+000                                                     T               0         AD AB1N001UA_x4, (-)
         29    3.754760926309E-001                                                     T               0         AD AB1N002UA_x4, (-)
         30    4.481476662486E-001                                                     T               0         AD AB1N003UA_x4, (-)
         31    5.201138959342E-001                                                     T               0         AD AB1N004UA_x4, (-)


Linearized state matrices:

A: 30 x 30
    0.000000000000E+000  1.000000000000E+000  0.000000000000E+000  0.000000000000E+000  0.000000000000E+000  0.000000000000E+000  0.000000000000E+000  0.000000000000E+000  0.000000000000E+000  0.000000000000E+000  0.000000000000E+000  0.000000000000E+000  0.000000000000E+000  0.000000000000E+000  0.000000000000E+000  0.000000000000E+000  0.000000000000E+000  0.000000000000E+000  0.000000000000E+000  0.000000000000E+000  0.000000000000E+000  0.000000000000E+000  0.000000000000E+000  0.000000000000E+000  0.000000000000E+000  0.000000000000E+000  0.000000000000E+000  0.000000000000E+000  0.000000000000E+000  0.000000000000E+000
   -1.600461304231E+001 -4.959674225061E-002  0.000000000000E+000  0.000000000000E+000  1.861980391111E-001  4.169472823474E-001  6.216681813520E-001  2.020155103127E+000  0.000000000000E+000  0.000000000000E+000  0.000000000000E+000  0.000000000000E+000  0.000000000000E+000  0.000000000000E+000  0.000000000000E+000  0.000000000000E+000  0.000000000000E+000  0.000000000000E+000  2.208614519388E+001  2.208614519388E+001  0.000000000000E+000  6.764146037531E+000  1.977688443773E+002  1.977688443774E+002  0.000000000000E+000  4.998851280118E+001  1.771184819959E+002  1.771184819959E+002  0.000000000000E+000  9.401808322717E+000
    1.238553436939E-020 -7.759896809342E-022 -2.565071974878E-002  0.000000000000E+000  3.706167601454E-022  8.301797965767E-022  1.112592298598E-021  3.611943520897E-021  0.000000000000E+000  0.000000000000E+000  2.565071974878E-002  0.000000000000E+000  0.000000000000E+000  0.000000000000E+000  0.000000000000E+000  0.000000000000E+000  0.000000000000E+000  0.000000000000E+000  4.380610436678E-020  4.380610436678E-020  0.000000000000E+000  1.343848298937E-020  3.549752866216E-019  3.549752866216E-019  0.000000000000E+000  8.952451999643E-020  4.148609423044E-019  4.148609423044E-019  0.000000000000E+000  2.209420429909E-020
    0.000000000000E+000  0.000000000000E+000  0.000000000000E+000 -2.565071974878E-002  0.000000000000E+000  0.000000000000E+000  0.000000000000E+000  0.000000000000E+000  0.000000000000E+000  0.000000000000E+000  0.000000000000E+000  2.565071974878E-002  0.000000000000E+000  0.000000000000E+000  0.000000000000E+000  0.000000000000E+000  0.000000000000E+000  0.000000000000E+000  0.000000000000E+000  0.000000000000E+000  0.000000000000E+000  0.000000000000E+000  0.000000000000E+000  0.000000000000E+000  0.000000000000E+000  0.000000000000E+000  0.000000000000E+000  0.000000000000E+000  0.000000000000E+000  0.000000000000E+000
   -9.664557756897E-006 -7.859053784987E-005  0.000000000000E+000  0.000000000000E+000 -2.840072093401E-002  3.377100629049E-022  3.446733138864E-021  1.128136576161E-020  0.000000000000E+000  0.000000000000E+000  0.000000000000E+000  0.000000000000E+000  2.840072093401E-002  0.000000000000E+000  0.000000000000E+000  0.000000000000E+000  0.000000000000E+000  0.000000000000E+000  2.516851434783E-020  2.516851434783E-020  0.000000000000E+000  6.811334607646E-021  1.070015213555E-018  1.070015213555E-018  0.000000000000E+000  2.742742104920E-019  1.903739233113E-019  1.903739233113E-019  0.000000000000E+000  9.464599206928E-021
   -2.654803161285E-006 -1.515034238657E-005  0.000000000000E+000  0.000000000000E+000 -5.679460237368E-023 -2.840072093401E-002 -1.373339828295E-021 -4.493637006208E-021  0.000000000000E+000  0.000000000000E+000  0.000000000000E+000  0.000000000000E+000  0.000000000000E+000  2.840072093401E-002  0.000000000000E+000  0.000000000000E+000  0.000000000000E+000  0.000000000000E+000 -9.064438847530E-021 -9.064438847530E-021  0.000000000000E+000 -2.465081385976E-021 -4.268224378544E-019 -4.268224378544E-019  0.000000000000E+000 -1.093465985523E-019 -3.810582470586E-020 -3.810582470586E-020  0.000000000000E+000 -1.753553132295E-021
   -5.480547548416E-005 -3.433844278865E-004  0.000000000000E+000  0.000000000000E+000 -2.905639730312E-021 -6.540923136080E-021 -3.846401513958E-002  1.272761770613E-020  0.000000000000E+000  0.000000000000E+000  0.000000000000E+000  0.000000000000E+000  0.000000000000E+000  0.000000000000E+000  3.846401513958E-002  0.000000000000E+000  0.000000000000E+000  0.000000000000E+000 -3.232160918509E-019 -3.232160918509E-019  0.000000000000E+000 -1.018564400531E-019  1.126102726178E-018  1.126102726178E-018  0.000000000000E+000  2.981832622887E-019 -1.443740723655E-018 -1.443740723655E-018  0.000000000000E+000 -7.814763512223E-020
   -1.424762421254E-005 -1.201254764785E-004  0.000000000000E+000  0.000000000000E+000  4.733435970551E-022  1.069555140906E-021 -2.057869701796E-021 -3.846401513958E-002  0.000000000000E+000  0.000000000000E+000  0.000000000000E+000  0.000000000000E+000  0.000000000000E+000  0.000000000000E+000  0.000000000000E+000  3.846401513958E-002  0.000000000000E+000  0.000000000000E+000  5.016044498946E-020  5.016044498946E-020  0.000000000000E+000  1.616308700116E-020 -6.329165536488E-019 -6.329165536488E-019  0.000000000000E+000 -1.631109797898E-019  3.022384761292E-021  3.022384761292E-021  0.000000000000E+000  5.471656819273E-022
    8.632587822977E-003  4.789526145181E-002  0.000000000000E+000  0.000000000000E+000  7.283468926942E-020  1.622995526657E-019  5.173061691472E-019  1.688523623016E-018 -7.692307692308E-002  0.000000000000E+000  0.000000000000E+000  0.000000000000E+000  0.000000000000E+000  0.000000000000E+000  0.000000000000E+000  0.000000000000E+000  7.692307692308E-002  0.000000000000E+000  9.150342440085E-018  9.150342440085E-018  0.000000000000E+000  2.735870646412E-018  1.621662738779E-016  1.621662738779E-016  0.000000000000E+000  4.135821935069E-017  8.006205072336E-017  8.006205072336E-017  0.000000000000E+000  4.199785750240E-018
    0.000000000000E+000  0.000000000000E+000  0.000000000000E+000  0.000000000000E+000  0.000000000000E+000  0.000000000000E+000  0.000000000000E+000  0.000000000000E+000  0.000000000000E+000 -7.692307692308E-002  0.000000000000E+000  0.000000000000E+000  0.000000000000E+000  0.000000000000E+000  0.000000000000E+000  0.000000000000E+000  0.000000000000E+000  7.692307692308E-002  0.000000000000E+000  0.000000000000E+000  0.000000000000E+000  0.000000000000E+000  0.000000000000E+000  0.000000000000E+000  0.000000000000E+000  0.000000000000E+000  0.000000000000E+000  0.000000000000E+000  0.000000000000E+000  0.000000000000E+000
    3.219021919782E-021 -2.016810674403E-022  0.000000000000E+000  0.000000000000E+000  9.632394042615E-023  2.157651727274E-022  2.891646730888E-022  9.387504018785E-022  0.000000000000E+000  0.000000000000E+000 -1.000000000000E-002  0.000000000000E+000  0.000000000000E+000  0.000000000000E+000  0.000000000000E+000  0.000000000000E+000  0.000000000000E+000  0.000000000000E+000  1.138528269923E-020  1.138528269923E-020  0.000000000000E+000  3.492685097073E-021  9.225869425836E-020  9.225869425836E-020  0.000000000000E+000  2.326757842098E-020  1.078230803053E-019  1.078230803053E-019  0.000000000000E+000  5.742322116877E-021
    0.000000000000E+000  0.000000000000E+000  0.000000000000E+000  0.000000000000E+000  0.000000000000E+000  0.000000000000E+000  0.000000000000E+000  0.000000000000E+000  0.000000000000E+000  0.000000000000E+000  0.000000000000E+000 -1.000000000000E-002  0.000000000000E+000  0.000000000000E+000  0.000000000000E+000  0.000000000000E+000  0.000000000000E+000  0.000000000000E+000  0.000000000000E+000  0.000000000000E+000  0.000000000000E+000  0.000000000000E+000  0.000000000000E+000  0.000000000000E+000  0.000000000000E+000  0.000000000000E+000  0.000000000000E+000  0.000000000000E+000  0.000000000000E+000  0.000000000000E+000
   -2.268617940920E-006 -1.844801476049E-005  0.000000000000E+000  0.000000000000E+000  3.652941658487E-023  7.927265031747E-023  8.090717478317E-022  2.648140702207E-021  0.000000000000E+000  0.000000000000E+000  0.000000000000E+000  0.000000000000E+000 -1.000000000000E-002  0.000000000000E+000  0.000000000000E+000  0.000000000000E+000  0.000000000000E+000  0.000000000000E+000  5.907951986220E-021  5.907951986220E-021  0.000000000000E+000  1.598864250306E-021  2.511709042038E-019  2.511709042038E-019  0.000000000000E+000  6.438198314970E-020  4.468757999809E-020  4.468757999809E-020  0.000000000000E+000  2.221680505674E-021
   -6.231774109896E-007 -3.556328123212E-006  0.000000000000E+000  0.000000000000E+000 -1.333172785898E-023 -2.897716529658E-023 -3.223720579689E-022 -1.054817591110E-021  0.000000000000E+000  0.000000000000E+000  0.000000000000E+000  0.000000000000E+000  0.000000000000E+000 -1.000000000000E-002  0.000000000000E+000  0.000000000000E+000  0.000000000000E+000  0.000000000000E+000 -2.127748533471E-021 -2.127748533471E-021  0.000000000000E+000 -5.786429134911E-022 -1.001905171929E-019 -1.001905171929E-019  0.000000000000E+000 -2.566756405149E-020 -8.944802209868E-021 -8.944802209868E-021  0.000000000000E+000 -4.116217416614E-022
   -9.499004075241E-006 -5.951613504041E-005  0.000000000000E+000  0.000000000000E+000 -5.036117905299E-022 -1.133687008033E-021  6.637263126576E-022  2.205978351444E-021  0.000000000000E+000  0.000000000000E+000  0.000000000000E+000  0.000000000000E+000  0.000000000000E+000  0.000000000000E+000 -1.000000000000E-002  0.000000000000E+000  0.000000000000E+000  0.000000000000E+000 -5.602051522320E-020 -5.602051522320E-020  0.000000000000E+000 -1.765397947206E-020  1.951785709477E-019  1.951785709477E-019  0.000000000000E+000  5.168177081992E-020 -2.502322787356E-019 -2.502322787356E-019  0.000000000000E+000 -1.354471789431E-020
   -2.469429181334E-006 -2.082040855460E-005  0.000000000000E+000  0.000000000000E+000  8.204094057564E-023  1.853776206193E-022 -3.566744474158E-022 -1.170563328942E-021  0.000000000000E+000  0.000000000000E+000  0.000000000000E+000  0.000000000000E+000  0.000000000000E+000  0.000000000000E+000  0.000000000000E+000 -1.000000000000E-002  0.000000000000E+000  0.000000000000E+000  8.693917298620E-021  8.693917298620E-021  0.000000000000E+000  2.801421353181E-021 -1.096984720831E-019 -1.096984720831E-019  0.000000000000E+000 -2.827074937408E-020  5.238462929265E-022  5.238462929265E-022  0.000000000000E+000  9.483594470341E-023
    7.481576113246E-004  4.150922659157E-003  0.000000000000E+000  0.000000000000E+000  6.312339736683E-021  1.406596123103E-020  4.483320132609E-020  1.463387139947E-019  0.000000000000E+000  0.000000000000E+000  0.000000000000E+000  0.000000000000E+000  0.000000000000E+000  0.000000000000E+000  0.000000000000E+000  0.000000000000E+000 -1.000000000000E-002  0.000000000000E+000  7.930296781407E-019  7.930296781407E-019  0.000000000000E+000  2.371087893558E-019  1.405441040275E-017  1.405441040275E-017  0.000000000000E+000  3.584379010393E-018  6.938711062691E-018  6.938711062691E-018  0.000000000000E+000  3.639814316874E-019
    0.000000000000E+000  0.000000000000E+000  0.000000000000E+000  0.000000000000E+000  0.000000000000E+000  0.000000000000E+000  0.000000000000E+000  0.000000000000E+000  0.000000000000E+000  0.000000000000E+000  0.000000000000E+000  0.000000000000E+000  0.000000000000E+000  0.000000000000E+000  0.000000000000E+000  0.000000000000E+000  0.000000000000E+000 -1.000000000000E-002  0.000000000000E+000  0.000000000000E+000  0.000000000000E+000  0.000000000000E+000  0.000000000000E+000  0.000000000000E+000  0.000000000000E+000  0.000000000000E+000  0.000000000000E+000  0.000000000000E+000  0.000000000000E+000  0.000000000000E+000