
Linearized model: Predictions were generated on 28-Jul-2023 at 17:14:31 using OpenFAST, compiled on Jul 28 2023 at 13:54:30 as a 64-bit application using double precision at commit HEAD-HASH-NOTFOUND
 linked with  NWTC Subroutine Library; ElastoDyn; InflowWind; AeroDyn

Description from the FAST input file: One Blade, 4 aero-stations, Linearization with continuous States AeroDynamic modules

Simulation information:
   Simulation time:                     1.1000 s
   Rotor Speed:                         1.2671 rad/s
   Azimuth:                             1.3938 rad
   Wind Speed:                         13.0000 m/s
   Number of continuous states:        34
   Number of discrete states:           0
   Number of constraint states:         0
   Number of inputs:                   11
   Number of outputs:                  11
   Jacobians included in this file?    No

Order of continuous states:
   Row/Column Operating Point                                                   Rotating Frame? Derivative Order Description
   ---------- ---------------                                                   --------------- ---------------- -----------
          1    6.244686307999E+000                                                     T               2         ED 1st flapwise bending-mode DOF of blade 1 (internal DOF index = DOF_BF(1,1)), m
          2   -9.975169781376E+000                                                     T               2         ED First time derivative of 1st flapwise bending-mode DOF of blade 1 (internal DOF index = DOF_BF(1,1)), m/s
          3   -1.303013675326E+001                                                     T               2         AD vind (axial) at blade 1, node 1, m/s
          4    0.000000000000E+000                                                     T               2         AD vind (tangential) at blade 1, node 1, m/s
          5   -8.932063693174E-001                                                     T               2         AD vind (axial) at blade 1, node 2, m/s
          6    3.691117474564E-001                                                     T               2         AD vind (tangential) at blade 1, node 2, m/s
          7   -1.265428154636E+000                                                     T               2         AD vind (axial) at blade 1, node 3, m/s
          8    2.846961877434E-001                                                     T               2         AD vind (tangential) at blade 1, node 3, m/s
          9   -1.411520328671E+001                                                     T               2         AD vind (axial) at blade 1, node 4, m/s
         10    0.000000000000E+000                                                     T               2         AD vind (tangential) at blade 1, node 4, m/s
         11   -5.212118268916E+000                                                     T               2         AD First time derivative of vind (axial) at blade 1, node 1, m/s/s
         12    0.000000000000E+000                                                     T               2         AD First time derivative of vind (tangential) at blade 1, node 1, m/s/s
         13   -3.570780418522E-001                                                     T               2         AD First time derivative of vind (axial) at blade 1, node 2, m/s/s
         14    1.476657475889E-001                                                     T               2         AD First time derivative of vind (tangential) at blade 1, node 2, m/s/s
         15   -5.061862212345E-001                                                     T               2         AD First time derivative of vind (axial) at blade 1, node 3, m/s/s
         16    1.142691158356E-001                                                     T               2         AD First time derivative of vind (tangential) at blade 1, node 3, m/s/s
         17   -5.749611780548E+000                                                     T               2         AD First time derivative of vind (axial) at blade 1, node 4, m/s/s
         18    0.000000000000E+000                                                     T               2         AD First time derivative of vind (tangential) at blade 1, node 4, m/s/s
         19    0.000000000000E+000                                                     T               1         AD x1 blade 1, node 1, rad
         20    0.000000000000E+000                                                     T               1         AD x2 blade 1, node 1, rad
         21    0.000000000000E+000                                                     T               1         AD x3 blade 1, node 1, -
         22    0.000000000000E+000                                                     T               1         AD x4 blade 1, node 1, -
         23    6.474575633533E-002                                                     T               1         AD x1 blade 1, node 2, rad
         24    1.593840338610E-001                                                     T               1         AD x2 blade 1, node 2, rad
         25    2.279600107027E+000                                                     T               1         AD x3 blade 1, node 2, -
         26    3.754631058571E-001                                                     T               1         AD x4 blade 1, node 2, -
         27    5.550632374884E-002                                                     T               1         AD x1 blade 1, node 3, rad
         28    1.491542330370E-001                                                     T               1         AD x2 blade 1, node 3, rad
         29    2.125962675145E+000                                                     T               1         AD x3 blade 1, node 3, -
         30    4.481163280746E-001                                                     T               1         AD x4 blade 1, node 3, -
         31   -9.113015095055E-004                                                     T               1         AD x1 blade 1, node 4, rad
         32   -1.941070049926E-003                                                     T               1         AD x2 blade 1, node 4, rad
         33    5.788725264974E-001                                                     T               1         AD x3 blade 1, node 4, -
         34    5.201146159078E-001                                                     T               1         AD x4 blade 1, node 4, -

Order of continuous state derivatives:
   Row/Column Operating Point                                                   Rotating Frame? Derivative Order Description
   ---------- ---------------                                                   --------------- ---------------- -----------
          1   -9.975169781376E+000                                                     T               2         First time derivative of ED 1st flapwise bending-mode DOF of blade 1 (internal DOF index = DOF_BF(1,1)), m/s
          2   -6.381941775272E+000                                                     T               2         First time derivative of ED First time derivative of 1st flapwise bending-mode DOF of blade 1 (internal DOF index = DOF_BF(1,1)), m/s/s
          3    1.160564194006E-003                                                     T               2         First time derivative of AD vind (axial) at blade 1, node 1, m/s/s
          4    0.000000000000E+000                                                     T               2         First time derivative of AD vind (tangential) at blade 1, node 1, m/s/s
          5   -6.145283109760E-004                                                     T               2         First time derivative of AD vind (axial) at blade 1, node 2, m/s/s
          6    1.569585796914E-004                                                     T               2         First time derivative of AD vind (tangential) at blade 1, node 2, m/s/s
          7    1.726746073703E-003                                                     T               2         First time derivative of AD vind (axial) at blade 1, node 3, m/s/s
          8    1.076821676499E-003                                                     T               2         First time derivative of AD vind (tangential) at blade 1, node 3, m/s/s
          9   -4.150787324253E-001                                                     T               2         First time derivative of AD vind (axial) at blade 1, node 4, m/s/s
         10    0.000000000000E+000                                                     T               2         First time derivative of AD vind (tangential) at blade 1, node 4, m/s/s
         11    3.026921122998E-004                                                     T               2         First time derivative of AD First time derivative of vind (axial) at blade 1, node 1, m/s/s/s
         12    0.000000000000E+000                                                     T               2         First time derivative of AD First time derivative of vind (tangential) at blade 1, node 1, m/s/s/s
         13   -1.476602414733E-004                                                     T               2         First time derivative of AD First time derivative of vind (axial) at blade 1, node 2, m/s/s/s
         14    3.649299163198E-005                                                     T               2         First time derivative of AD First time derivative of vind (tangential) at blade 1, node 2, m/s/s/s
         15    2.995327038329E-004                                                     T               2         First time derivative of AD First time derivative of vind (axial) at blade 1, node 3, m/s/s/s
         16    1.801263933832E-004                                                     T               2         First time derivative of AD First time derivative of vind (tangential) at blade 1, node 3, m/s/s/s
         17   -3.424798237915E-002                                                     T               2         First time derivative of AD First time derivative of vind (axial) at blade 1, node 4, m/s/s/s
         18    0.000000000000E+000                                                     T               2         First time derivative of AD First time derivative of vind (tangential) at blade 1, node 4, m/s/s/s
         19    0.000000000000E+000                                                     T               1         First time derivative of AD x1 blade 1, node 1, rad/s
         20    0.000000000000E+000                                                     T               1         First time derivative of AD x2 blade 1, node 1, rad/s
         21    0.000000000000E+000                                                     T               1         First time derivative of AD x3 blade 1, node 1, -/s
         22    0.000000000000E+000                                                     T               1         First time derivative of AD x4 blade 1, node 1, -/s
         23    1.039582312750E-002                                                     T               1         First time derivative of AD x1 blade 1, node 2, rad/s
         24    2.069725516257E-002                                                     T               1         First time derivative of AD x2 blade 1, node 2, rad/s
         25    3.735186658221E-001                                                     T               1         First time derivative of AD x3 blade 1, node 2, -/s
         26   -1.343410996796E-001                                                     T               1         First time derivative of AD x4 blade 1, node 2, -/s
         27    5.305104635307E-002                                                     T               1         First time derivative of AD x1 blade 1, node 3, rad/s
         28    5.896690266071E-002                                                     T               1         First time derivative of AD x2 blade 1, node 3, rad/s
         29    1.163887563659E+000                                                     T               1         First time derivative of AD x3 blade 1, node 3, -/s
         30   -5.597068774887E-001                                                     T               1         First time derivative of AD x4 blade 1, node 3, -/s
         31    1.697605649780E-003                                                     T               1         First time derivative of AD x1 blade 1, node 4, rad/s
         32    4.032726348714E-003                                                     T               1         First time derivative of AD x2 blade 1, node 4, rad/s
         33    3.103318421553E-002                                                     T               1         First time derivative of AD x3 blade 1, node 4, -/s
         34    1.203294011644E-002                                                     T               1         First time derivative of AD x4 blade 1, node 4, -/s

Order of inputs:
     Column   Operating Point                                                   Rotating Frame? Derivative Order Description
   ---------- ---------------                                                   --------------- ---------------- -----------
          1    1.300000000000E+001                                                     F               0         IfW Extended input: horizontal wind speed (steady/uniform wind), m/s
          2    2.000000000000E-001                                                     F               0         IfW Extended input: vertical power-law shear exponent, -
          3    0.000000000000E+000                                                     F               0         IfW Extended input: propagation direction, rad
          4    0.000000000000E+000                                                     T               0         ED Blade 1 pitch command, rad
          5    0.000000000000E+000                                                     F               0         ED Yaw moment, Nm
          6    0.000000000000E+000                                                     F               0         ED Generator torque, Nm
          7    0.000000000000E+000                                                     F               0         ED Extended input: collective blade-pitch command, rad
          8    0.000000000000E+000                                                     T               0         AD User property on blade 1, node 1, -
          9    0.000000000000E+000                                                     T               0         AD User property on blade 1, node 2, -
         10    0.000000000000E+000                                                     T               0         AD User property on blade 1, node 3, -
         11    0.000000000000E+000                                                     T               0         AD User property on blade 1, node 4, -

Order of outputs:
        Row   Operating Point                                                   Rotating Frame? Derivative Order Description
   ---------- ---------------                                                   --------------- ---------------- -----------
          1    1.300000000000E+001                                                     F               0         IfW Wind1VelX, (m/s)
          2   -0.000000000000E+000                                                     F               0         IfW Wind1VelY, (m/s)
          3    0.000000000000E+000                                                     F               0         IfW Wind1VelZ, (m/s)
          4    3.203902818609E+002                                                     F               0         ED TwrBsFxt, (kN)
          5    3.177456712807E+004                                                     F               0         ED TwrBsMyt, (kN-m)
          6    6.244686307999E+000                                                     F               0         ED Q_B1F1, (m)
          7    8.778806155890E-002                                                     F               0         AD RtAeroCp, (-)
          8    1.384706475422E-001                                                     F               0         AD RtAeroCt, (-)
          9    1.509771664417E+000                                                     T               0         AD B1N1Cl, (-)
         10    7.500526646744E-002                                                     T               0         AD B1N1AxInd, (-)
         11    5.011850392005E-003                                                     T               0         AD B1N1TnInd, (-)


Linearized state matrices:

A: 34 x 34
    0.000000000000E+000  1.000000000000E+000  0.000000000000E+000  0.000000000000E+000  0.000000000000E+000  0.000000000000E+000  0.000000000000E+000  0.000000000000E+000  0.000000000000E+000  0.000000000000E+000  0.000000000000E+000  0.000000000000E+000  0.000000000000E+000  0.000000000000E+000  0.000000000000E+000  0.000000000000E+000  0.000000000000E+000  0.000000000000E+000  0.000000000000E+000  0.000000000000E+000  0.000000000000E+000  0.000000000000E+000  0.000000000000E+000  0.000000000000E+000  0.000000000000E+000  0.000000000000E+000  0.000000000000E+000  0.000000000000E+000  0.000000000000E+000  0.000000000000E+000  0.000000000000E+000  0.000000000000E+000  0.000000000000E+000  0.000000000000E+000
   -1.600448854105E+001 -4.958138253095E-002  0.000000000000E+000  0.000000000000E+000  1.861930224915E-001  4.169408977551E-001  6.216080825055E-001  2.020057553087E+000  0.000000000000E+000  0.000000000000E+000  0.000000000000E+000  0.000000000000E+000  0.000000000000E+000  0.000000000000E+000  0.000000000000E+000  0.000000000000E+000  0.000000000000E+000  0.000000000000E+000  0.000000000000E+000  0.000000000000E+000  0.000000000000E+000  0.000000000000E+000  2.184947810069E+001  2.184947810069E+001  0.000000000000E+000  6.764089742784E+000  1.976785939751E+002  1.976785939751E+002  0.000000000000E+000  4.998666051161E+001  1.774394688180E+002  1.774394688180E+002  0.000000000000E+000  9.401797122767E+000
    1.053474058131E-019  5.981498568617E-021 -2.565071974878E-002  0.000000000000E+000 -3.092054257277E-022 -6.924699834268E-022 -1.407066415184E-021 -4.573089593938E-021  0.000000000000E+000  0.000000000000E+000  2.565071974878E-002  0.000000000000E+000  0.000000000000E+000  0.000000000000E+000  0.000000000000E+000  0.000000000000E+000  0.000000000000E+000  0.000000000000E+000  0.000000000000E+000  0.000000000000E+000  0.000000000000E+000  0.000000000000E+000 -3.623936613474E-020 -3.623936613474E-020  0.000000000000E+000 -1.122257027940E-020 -4.474002924812E-019 -4.474002924812E-019  0.000000000000E+000 -1.131805320374E-019 -3.435643592505E-019 -3.435643592505E-019  0.000000000000E+000 -1.825711455298E-020
    0.000000000000E+000  0.000000000000E+000  0.000000000000E+000 -2.565071974878E-002  0.000000000000E+000  0.000000000000E+000  0.000000000000E+000  0.000000000000E+000  0.000000000000E+000  0.000000000000E+000  0.000000000000E+000  2.565071974878E-002  0.000000000000E+000  0.000000000000E+000  0.000000000000E+000  0.000000000000E+000  0.000000000000E+000  0.000000000000E+000  0.000000000000E+000  0.000000000000E+000  0.000000000000E+000  0.000000000000E+000  0.000000000000E+000  0.000000000000E+000  0.000000000000E+000  0.000000000000E+000  0.000000000000E+000  0.000000000000E+000  0.000000000000E+000  0.000000000000E+000  0.000000000000E+000  0.000000000000E+000  0.000000000000E+000  0.000000000000E+000
   -9.668306029061E-006 -7.858490208950E-005  0.000000000000E+000  0.000000000000E+000 -2.840072093401E-002 -5.434857087860E-022 -2.462048992972E-021 -8.010418514918E-021  0.000000000000E+000  0.000000000000E+000  0.000000000000E+000  0.000000000000E+000  2.840072093401E-002  0.000000000000E+000  0.000000000000E+000  0.000000000000E+000  0.000000000000E+000  0.000000000000E+000  0.000000000000E+000  0.000000000000E+000  0.000000000000E+000  0.000000000000E+000 -2.922209312507E-020 -2.922209312507E-020  0.000000000000E+000 -9.008898102838E-021 -7.789291513773E-019 -7.789291513773E-019  0.000000000000E+000 -1.976613945271E-019 -1.179334015206E-018 -1.179334015206E-018  0.000000000000E+000 -6.312449284654E-020
   -2.653913372906E-006 -1.515306280202E-005  0.000000000000E+000  0.000000000000E+000 -5.950141620724E-023 -2.840072093401E-002  3.447944308420E-022  1.122442517210E-021  0.000000000000E+000  0.000000000000E+000  0.000000000000E+000  0.000000000000E+000  0.000000000000E+000  2.840072093401E-002  0.000000000000E+000  0.000000000000E+000  0.000000000000E+000  0.000000000000E+000  0.000000000000E+000  0.000000000000E+000  0.000000000000E+000  0.000000000000E+000 -6.635338148868E-021 -6.635338148868E-021  0.000000000000E+000 -2.080689557031E-021  1.087827576840E-019  1.087827576840E-019  0.000000000000E+000  2.764979478336E-020  3.359607632700E-019  3.359607632700E-019  0.000000000000E+000  1.806548592943E-020
   -5.478936708372E-005 -3.433914264052E-004  0.000000000000E+000  0.000000000000E+000 -2.073846954551E-023 -4.854070528478E-023 -3.846401513958E-002 -4.052755815108E-021  0.000000000000E+000  0.000000000000E+000  0.000000000000E+000  0.000000000000E+000  0.000000000000E+000  0.000000000000E+000  3.846401513958E-002  0.000000000000E+000  0.000000000000E+000  0.000000000000E+000  0.000000000000E+000  0.000000000000E+000  0.000000000000E+000  0.000000000000E+000 -1.528980817142E-021 -1.528980817142E-021  0.000000000000E+000 -7.759568060104E-022 -4.023259516819E-019 -4.023259516819E-019  0.000000000000E+000 -1.011883966102E-019 -2.058118431354E-018 -2.058118431354E-018  0.000000000000E+000 -1.106853882018E-019
   -1.425580442543E-005 -1.201314913374E-004  0.000000000000E+000  0.000000000000E+000  2.908951746861E-022  6.519703846543E-022  1.392451059244E-021 -3.846401513958E-002  0.000000000000E+000  0.000000000000E+000  0.000000000000E+000  0.000000000000E+000  0.000000000000E+000  0.000000000000E+000  0.000000000000E+000  3.846401513958E-002  0.000000000000E+000  0.000000000000E+000  0.000000000000E+000  0.000000000000E+000  0.000000000000E+000  0.000000000000E+000  3.387758676794E-020  3.387758676794E-020  0.000000000000E+000  1.056500455401E-020  4.437061472162E-019  4.437061472162E-019  0.000000000000E+000  1.121249896712E-019  8.661545508216E-019  8.661545508216E-019  0.000000000000E+000  4.641353284501E-020
    8.633397543839E-003  4.789533311504E-002  0.000000000000E+000  0.000000000000E+000 -1.101653837669E-020 -2.480964539599E-020 -5.194813822948E-020 -1.652153148107E-019 -7.692307692308E-002  0.000000000000E+000  0.000000000000E+000  0.000000000000E+000  0.000000000000E+000  0.000000000000E+000  0.000000000000E+000  0.000000000000E+000  7.692307692308E-002  0.000000000000E+000  0.000000000000E+000  0.000000000000E+000  0.000000000000E+000  0.000000000000E+000 -1.215500611296E-018 -1.215500611296E-018  0.000000000000E+000 -3.901147714082E-019 -1.788222699432E-017 -1.788222699432E-017  0.000000000000E+000 -4.244854032412E-018 -9.867872977112E-017 -9.867872977112E-017  0.000000000000E+000 -5.307728822566E-018
    0.000000000000E+000  0.000000000000E+000  0.000000000000E+000  0.000000000000E+000  0.000000000000E+000  0.000000000000E+000  0.000000000000E+000  0.000000000000E+000  0.000000000000E+000 -7.692307692308E-002  0.000000000000E+000  0.000000000000E+000  0.000000000000E+000  0.000000000000E+000  0.000000000000E+000  0.000000000000E+000  0.000000000000E+000  7.692307692308E-002  0.000000000000E+000  0.000000000000E+000  0.000000000000E+000  0.000000000000E+000  0.000000000000E+000  0.000000000000E+000  0.000000000000E+000  0.000000000000E+000  0.000000000000E+000  0.000000000000E+000  0.000000000000E+000  0.000000000000E+000  0.000000000000E+000  0.000000000000E+000  0.000000000000E+000  0.000000000000E+000
    2.737997395911E-020  1.554601879193E-021  0.000000000000E+000  0.000000000000E+000 -8.036302782300E-023 -1.799741528265E-022 -3.656990080497E-022 -1.188553937596E-021  0.000000000000E+000  0.000000000000E+000 -1.000000000000E-002  0.000000000000E+000  0.000000000000E+000  0.000000000000E+000  0.000000000000E+000  0.000000000000E+000  0.000000000000E+000  0.000000000000E+000  0.000000000000E+000  0.000000000000E+000  0.000000000000E+000  0.000000000000E+000 -9.418674274942E-021 -9.418674274942E-021  0.000000000000E+000 -2.916765530510E-021 -1.162801139989E-019 -1.162801139989E-019  0.000000000000E+000 -2.941581708579E-020 -8.929297439221E-020 -8.929297439221E-020  0.000000000000E+000 -4.745055819560E-021
    0.000000000000E+000  0.000000000000E+000  0.000000000000E+000  0.000000000000E+000  0.000000000000E+000  0.000000000000E+000  0.000000000000E+000  0.000000000000E+000  0.000000000000E+000  0.000000000000E+000  0.000000000000E+000 -1.000000000000E-002  0.000000000000E+000  0.000000000000E+000  0.000000000000E+000  0.000000000000E+000  0.000000000000E+000  0.000000000000E+000  0.000000000000E+000  0.000000000000E+000  0.000000000000E+000  0.000000000000E+000  0.000000000000E+000  0.000000000000E+000  0.000000000000E+000  0.000000000000E+000  0.000000000000E+000  0.000000000000E+000  0.000000000000E+000  0.000000000000E+000  0.000000000000E+000  0.000000000000E+000  0.000000000000E+000  0.000000000000E+000
   -2.269497794680E-006 -1.844669184563E-005  0.000000000000E+000  0.000000000000E+000 -5.707347721876E-023 -1.275755663735E-022 -5.779311022168E-022 -1.880332200846E-021  0.000000000000E+000  0.000000000000E+000  0.000000000000E+000  0.000000000000E+000 -1.000000000000E-002  0.000000000000E+000  0.000000000000E+000  0.000000000000E+000  0.000000000000E+000  0.000000000000E+000  0.000000000000E+000  0.000000000000E+000  0.000000000000E+000  0.000000000000E+000 -6.859472145788E-021 -6.859472145788E-021  0.000000000000E+000 -2.114711130930E-021 -1.828425771743E-019 -1.828425771743E-019  0.000000000000E+000 -4.639821056805E-020 -2.768319433267E-019 -2.768319433267E-019  0.000000000000E+000 -1.481757992299E-020
   -6.229685457804E-007 -3.556966702179E-006  0.000000000000E+000  0.000000000000E+000 -1.396711403805E-023 -3.139734086265E-023  8.093560527169E-023  2.634774705938E-022  0.000000000000E+000  0.000000000000E+000  0.000000000000E+000  0.000000000000E+000  0.000000000000E+000 -1.000000000000E-002  0.000000000000E+000  0.000000000000E+000  0.000000000000E+000  0.000000000000E+000  0.000000000000E+000  0.000000000000E+000  0.000000000000E+000  0.000000000000E+000 -1.557551576310E-021 -1.557551576310E-021  0.000000000000E+000 -4.884123802974E-022  2.553521039993E-020  2.553521039993E-020  0.000000000000E+000  6.490397396977E-021  7.886202702402E-020  7.886202702402E-020  0.000000000000E+000  4.240616748521E-021
   -9.496212132281E-006 -5.951734803885E-005  0.000000000000E+000  0.000000000000E+000 -3.594436595745E-024 -8.413180494152E-024 -2.166056310430E-022 -7.024324424445E-022  0.000000000000E+000  0.000000000000E+000  0.000000000000E+000  0.000000000000E+000  0.000000000000E+000  0.000000000000E+000 -1.000000000000E-002  0.000000000000E+000  0.000000000000E+000  0.000000000000E+000  0.000000000000E+000  0.000000000000E+000  0.000000000000E+000  0.000000000000E+000 -2.650062769228E-022 -2.650062769228E-022  0.000000000000E+000 -1.344905193761E-022 -6.973200799447E-020 -6.973200799447E-020  0.000000000000E+000 -1.753819273122E-020 -3.567175577633E-019 -3.567175577633E-019  0.000000000000E+000 -1.918423194599E-020
   -2.470846993604E-006 -2.082145106302E-005  0.000000000000E+000  0.000000000000E+000  5.041858364335E-023  1.130009234672E-022  2.413426426737E-022  7.840726616421E-022  0.000000000000E+000  0.000000000000E+000  0.000000000000E+000  0.000000000000E+000  0.000000000000E+000  0.000000000000E+000  0.000000000000E+000 -1.000000000000E-002  0.000000000000E+000  0.000000000000E+000  0.000000000000E+000  0.000000000000E+000  0.000000000000E+000  0.000000000000E+000  5.871736937325E-021  5.871736937325E-021  0.000000000000E+000  1.831149541664E-021  7.690411338252E-020  7.690411338252E-020  0.000000000000E+000  1.943374680018E-020  1.501237884602E-019  1.501237884602E-019  0.000000000000E+000  8.044494345616E-021
    7.482277871327E-004  4.150928869970E-003  0.000000000000E+000  0.000000000000E+000 -9.547666593132E-022 -2.150169267653E-021 -4.502171979888E-021 -1.431866061693E-020  0.000000000000E+000  0.000000000000E+000  0.000000000000E+000  0.000000000000E+000  0.000000000000E+000  0.000000000000E+000  0.000000000000E+000  0.000000000000E+000 -1.000000000000E-002  0.000000000000E+000  0.000000000000E+000  0.000000000000E+000  0.000000000000E+000  0.000000000000E+000 -1.053433863123E-019 -1.053433863123E-019  0.000000000000E+000 -3.380994685538E-020 -1.549793006174E-018 -1.549793006174E-018  0.000000000000E+000 -3.678873494757E-019 -8.552156580163E-018 -8.552156580163E-018  0.000000000000E+000 -4.600031646224E-019
    0.000000000000E+000  0.000000000000E+000  0.000000000000E+000  0.000000000000E+000  0.000000000000E+000  0.000000000000E+000  0.000000000000E+000  0.000000000000E+000  0.000000000000E+000  0.000000000000E+000  0.000000000000E+000  0.000000000000E+000  0.000000000000E+000  0.000000000000E+000  0.000000000000E+000  0.000000000000E+000  0.000000000000E+000 -1.000000000000E-002  0.000000000000E+000  0.000000000000E+000  0.000000000000E+000  0.000000000000E+000  0.000000000000E+000  0.000000000000E+000  0.000000000000E+000  0.000000000000E+000  0.000000000000E+000  0.000000000000E+000  0.000000000000E+000  0.000000000000E+000  0.000000000000E+000  0.000000000000E+000  0.000000000000E+000  0.000000000000E+000