
Linearized model: Predictions were generated on 02-May-2024 at 21:57:07 using OpenFAST, compiled on May  2 2024 at 21:38:56 as a 64-bit application using double precision at commit -128-NOTFOUND
 linked with  NWTC Subroutine Library; ElastoDyn; InflowWind; AeroDyn

Description from the FAST input file: One Blade, 4 aero-stations, Linearization with continuous States AeroDynamic modules

Simulation information:
   Simulation time:                     1.1000 s
   Rotor Speed:                         1.2671 rad/s
   Azimuth:                             1.3938 rad
   Wind Speed:                         13.0000 m/s
   Number of continuous states:        28
   Number of discrete states:           0
   Number of constraint states:         0
   Number of inputs:                    7
   Number of outputs:                  25
   Jacobians included in this file?    No

Order of continuous states:
   Row/Column Operating Point                                                   Rotating Frame? Derivative Order Description
   ---------- ---------------                                                   --------------- ---------------- -----------
          1   -1.303013002991E+001                                                     T               2         vind (axial) at blade 1, node 1, m/s
          2    0.000000000000E+000                                                     T               2         vind (tangential) at blade 1, node 1, m/s
          3   -8.932115540762E-001                                                     T               2         vind (axial) at blade 1, node 2, m/s
          4    3.691095910346E-001                                                     T               2         vind (tangential) at blade 1, node 2, m/s
          5   -1.265416506494E+000                                                     T               2         vind (axial) at blade 1, node 3, m/s
          6    2.846933033202E-001                                                     T               2         vind (tangential) at blade 1, node 3, m/s
          7   -1.411484960404E+001                                                     T               2         vind (axial) at blade 1, node 4, m/s
          8    0.000000000000E+000                                                     T               2         vind (tangential) at blade 1, node 4, m/s
          9   -5.212116040265E+000                                                     T               2         First time derivative of vind (axial) at blade 1, node 1, m/s/s
         10    0.000000000000E+000                                                     T               2         First time derivative of vind (tangential) at blade 1, node 1, m/s/s
         11   -3.570808361857E-001                                                     T               2         First time derivative of vind (axial) at blade 1, node 2, m/s/s
         12    1.476648770230E-001                                                     T               2         First time derivative of vind (tangential) at blade 1, node 2, m/s/s
         13   -5.061847776620E-001                                                     T               2         First time derivative of vind (axial) at blade 1, node 3, m/s/s
         14    1.142678553832E-001                                                     T               2         First time derivative of vind (tangential) at blade 1, node 3, m/s/s
         15   -5.749536544327E+000                                                     T               2         First time derivative of vind (axial) at blade 1, node 4, m/s/s
         16    0.000000000000E+000                                                     T               2         First time derivative of vind (tangential) at blade 1, node 4, m/s/s
         17    6.471830915740E-002                                                     T               1         x1 blade 1, node 2, rad
         18    1.592984974158E-001                                                     T               1         x2 blade 1, node 2, rad
         19    2.278794997826E+000                                                     T               1         x3 blade 1, node 2, -
         20    3.756940943559E-001                                                     T               1         x4 blade 1, node 2, -
         21    5.547220157810E-002                                                     T               1         x1 blade 1, node 3, rad
         22    1.490632350145E-001                                                     T               1         x2 blade 1, node 3, rad
         23    2.125014894410E+000                                                     T               1         x3 blade 1, node 3, -
         24    4.484200784348E-001                                                     T               1         x4 blade 1, node 3, -
         25   -9.109217300658E-004                                                     T               1         x1 blade 1, node 4, rad
         26   -1.940247208816E-003                                                     T               1         x2 blade 1, node 4, rad
         27    5.788795657093E-001                                                     T               1         x3 blade 1, node 4, -
         28    5.201174861141E-001                                                     T               1         x4 blade 1, node 4, -

Order of continuous state derivatives:
   Row/Column Operating Point                                                   Rotating Frame? Derivative Order Description
   ---------- ---------------                                                   --------------- ---------------- -----------
          1    1.160448901599E-003                                                     T               2         First time derivative of vind (axial) at blade 1, node 1, m/s/s
          2    0.000000000000E+000                                                     T               2         First time derivative of vind (tangential) at blade 1, node 1, m/s/s
          3   -6.144971787751E-004                                                     T               2         First time derivative of vind (axial) at blade 1, node 2, m/s/s
          4    1.569916635192E-004                                                     T               2         First time derivative of vind (tangential) at blade 1, node 2, m/s/s
          5    1.726189333175E-003                                                     T               2         First time derivative of vind (axial) at blade 1, node 3, m/s/s
          6    1.076844736206E-003                                                     T               2         First time derivative of vind (tangential) at blade 1, node 3, m/s/s
          7   -4.150855411217E-001                                                     T               2         First time derivative of vind (axial) at blade 1, node 4, m/s/s
          8    0.000000000000E+000                                                     T               2         First time derivative of vind (tangential) at blade 1, node 4, m/s/s
          9    3.026698257929E-004                                                     T               2         First time derivative of First time derivative of vind (axial) at blade 1, node 1, m/s/s/s
         10    0.000000000000E+000                                                     T               2         First time derivative of First time derivative of vind (tangential) at blade 1, node 1, m/s/s/s
         11   -1.476409264636E-004                                                     T               2         First time derivative of First time derivative of vind (axial) at blade 1, node 2, m/s/s/s
         12    3.650089087721E-005                                                     T               2         First time derivative of First time derivative of vind (tangential) at blade 1, node 2, m/s/s/s
         13    2.994898030936E-004                                                     T               2         First time derivative of First time derivative of vind (axial) at blade 1, node 3, m/s/s/s
         14    1.801321681938E-004                                                     T               2         First time derivative of First time derivative of vind (tangential) at blade 1, node 3, m/s/s/s
         15   -3.424746851871E-002                                                     T               2         First time derivative of First time derivative of vind (axial) at blade 1, node 4, m/s/s/s
         16    0.000000000000E+000                                                     T               2         First time derivative of First time derivative of vind (tangential) at blade 1, node 4, m/s/s/s
         17    1.045631152871E-002                                                     T               1         First time derivative of x1 blade 1, node 2, rad/s
         18    2.141554444204E-002                                                     T               1         First time derivative of x2 blade 1, node 2, rad/s
         19    3.728826211654E-001                                                     T               1         First time derivative of x3 blade 1, node 2, -/s
         20   -1.341684931122E-001                                                     T               1         First time derivative of x4 blade 1, node 2, -/s
         21    5.323393918432E-002                                                     T               1         First time derivative of x1 blade 1, node 3, rad/s
         22    6.081938793065E-002                                                     T               1         First time derivative of x2 blade 1, node 3, rad/s
         23    1.163483860600E+000                                                     T               1         First time derivative of x3 blade 1, node 3, -/s
         24   -5.588089013627E-001                                                     T               1         First time derivative of x4 blade 1, node 3, -/s
         25    1.696822274966E-003                                                     T               1         First time derivative of x1 blade 1, node 4, rad/s
         26    4.029497832432E-003                                                     T               1         First time derivative of x2 blade 1, node 4, rad/s
         27    3.100594838379E-002                                                     T               1         First time derivative of x3 blade 1, node 4, -/s
         28    1.202670712509E-002                                                     T               1         First time derivative of x4 blade 1, node 4, -/s

Order of inputs:
     Column   Operating Point                                                   Rotating Frame? Derivative Order Description
   ---------- ---------------                                                   --------------- ---------------- -----------
          1    0.000000000000E+000                                                     T               0         User property on blade 1, node 1, -
          2    0.000000000000E+000                                                     T               0         User property on blade 1, node 2, -
          3    0.000000000000E+000                                                     T               0         User property on blade 1, node 3, -
          4    0.000000000000E+000                                                     T               0         User property on blade 1, node 4, -
          5    1.300000000000E+001                                                     F               0         Extended input: horizontal wind speed (steady/uniform wind), m/s
          6    2.000000000000E-001                                                     F               0         Extended input: vertical power-law shear exponent, -
          7    0.000000000000E+000                                                     F               0         Extended input: propagation direction, rad

Order of outputs:
        Row   Operating Point                                                   Rotating Frame? Derivative Order Description
   ---------- ---------------                                                   --------------- ---------------- -----------
          1    8.777106464280E-002                                                     F               0         RtAeroCp, (-)
          2    1.384566016694E-001                                                     F               0         RtAeroCt, (-)
          3    1.509533769636E+000                                                     T               0         B1N1Cl, (-)
          4    7.500525638911E-002                                                     T               0         B1N1AxInd, (-)
          5    5.011790475313E-003                                                     T               0         B1N1TnInd, (-)
          6    0.000000000000E+000                                                     T               0         AB1N001UA_Flag, (-)
          7    1.000000000000E+000                                                     T               0         AB1N002UA_Flag, (-)
          8    1.000000000000E+000                                                     T               0         AB1N003UA_Flag, (-)
          9    1.000000000000E+000                                                     T               0         AB1N004UA_Flag, (-)
         10    0.000000000000E+000                                                     T               0         AB1N001UA_x1, (rad)
         11    6.471830915740E-002                                                     T               0         AB1N002UA_x1, (rad)
         12    5.547220157810E-002                                                     T               0         AB1N003UA_x1, (rad)
         13   -9.109217300658E-004                                                     T               0         AB1N004UA_x1, (rad)
         14    0.000000000000E+000                                                     T               0         AB1N001UA_x2, (rad)
         15    1.592984974158E-001                                                     T               0         AB1N002UA_x2, (rad)
         16    1.490632350145E-001                                                     T               0         AB1N003UA_x2, (rad)
         17   -1.940247208816E-003                                                     T               0         AB1N004UA_x2, (rad)
         18    0.000000000000E+000                                                     T               0         AB1N001UA_x3, (-)
         19    2.278794997826E+000                                                     T               0         AB1N002UA_x3, (-)
         20    2.125014894410E+000                                                     T               0         AB1N003UA_x3, (-)
         21    5.788795657093E-001                                                     T               0         AB1N004UA_x3, (-)
         22    0.000000000000E+000                                                     T               0         AB1N001UA_x4, (-)
         23    3.756940943559E-001                                                     T               0         AB1N002UA_x4, (-)
         24    4.484200784348E-001                                                     T               0         AB1N003UA_x4, (-)
         25    5.201174861141E-001                                                     T               0         AB1N004UA_x4, (-)


Linearized state matrices:

A: 28 x 28
   -2.565071974878E-002  0.000000000000E+000  0.000000000000E+000  0.000000000000E+000  0.000000000000E+000  0.000000000000E+000  0.000000000000E+000  0.000000000000E+000  2.565071974878E-002  0.000000000000E+000  0.000000000000E+000  0.000000000000E+000  0.000000000000E+000  0.000000000000E+000  0.000000000000E+000  0.000000000000E+000  0.000000000000E+000  0.000000000000E+000  0.000000000000E+000  0.000000000000E+000  0.000000000000E+000  0.000000000000E+000  0.000000000000E+000  0.000000000000E+000  0.000000000000E+000  0.000000000000E+000  0.000000000000E+000  0.000000000000E+000
    0.000000000000E+000 -2.565071974878E-002  0.000000000000E+000  0.000000000000E+000  0.000000000000E+000  0.000000000000E+000  0.000000000000E+000  0.000000000000E+000  0.000000000000E+000  2.565071974878E-002  0.000000000000E+000  0.000000000000E+000  0.000000000000E+000  0.000000000000E+000  0.000000000000E+000  0.000000000000E+000  0.000000000000E+000  0.000000000000E+000  0.000000000000E+000  0.000000000000E+000  0.000000000000E+000  0.000000000000E+000  0.000000000000E+000  0.000000000000E+000  0.000000000000E+000  0.000000000000E+000  0.000000000000E+000  0.000000000000E+000
    0.000000000000E+000  0.000000000000E+000 -2.840072093401E-002  0.000000000000E+000  0.000000000000E+000  0.000000000000E+000  0.000000000000E+000  0.000000000000E+000  0.000000000000E+000  0.000000000000E+000  2.840072093401E-002  0.000000000000E+000  0.000000000000E+000  0.000000000000E+000  0.000000000000E+000  0.000000000000E+000  0.000000000000E+000  0.000000000000E+000  0.000000000000E+000  0.000000000000E+000  0.000000000000E+000  0.000000000000E+000  0.000000000000E+000  0.000000000000E+000  0.000000000000E+000  0.000000000000E+000  0.000000000000E+000  0.000000000000E+000
    0.000000000000E+000  0.000000000000E+000  0.000000000000E+000 -2.840072093401E-002  0.000000000000E+000  0.000000000000E+000  0.000000000000E+000  0.000000000000E+000  0.000000000000E+000  0.000000000000E+000  0.000000000000E+000  2.840072093401E-002  0.000000000000E+000  0.000000000000E+000  0.000000000000E+000  0.000000000000E+000  0.000000000000E+000  0.000000000000E+000  0.000000000000E+000  0.000000000000E+000  0.000000000000E+000  0.000000000000E+000  0.000000000000E+000  0.000000000000E+000  0.000000000000E+000  0.000000000000E+000  0.000000000000E+000  0.000000000000E+000
    0.000000000000E+000  0.000000000000E+000  0.000000000000E+000  0.000000000000E+000 -3.846401513958E-002  0.000000000000E+000  0.000000000000E+000  0.000000000000E+000  0.000000000000E+000  0.000000000000E+000  0.000000000000E+000  0.000000000000E+000  3.846401513958E-002  0.000000000000E+000  0.000000000000E+000  0.000000000000E+000  0.000000000000E+000  0.000000000000E+000  0.000000000000E+000  0.000000000000E+000  0.000000000000E+000  0.000000000000E+000  0.000000000000E+000  0.000000000000E+000  0.000000000000E+000  0.000000000000E+000  0.000000000000E+000  0.000000000000E+000
    0.000000000000E+000  0.000000000000E+000  0.000000000000E+000  0.000000000000E+000  0.000000000000E+000 -3.846401513958E-002  0.000000000000E+000  0.000000000000E+000  0.000000000000E+000  0.000000000000E+000  0.000000000000E+000  0.000000000000E+000  0.000000000000E+000  3.846401513958E-002  0.000000000000E+000  0.000000000000E+000  0.000000000000E+000  0.000000000000E+000  0.000000000000E+000  0.000000000000E+000  0.000000000000E+000  0.000000000000E+000  0.000000000000E+000  0.000000000000E+000  0.000000000000E+000  0.000000000000E+000  0.000000000000E+000  0.000000000000E+000
    0.000000000000E+000  0.000000000000E+000  0.000000000000E+000  0.000000000000E+000  0.000000000000E+000  0.000000000000E+000 -7.692307692308E-002  0.000000000000E+000  0.000000000000E+000  0.000000000000E+000  0.000000000000E+000  0.000000000000E+000  0.000000000000E+000  0.000000000000E+000  7.692307692308E-002  0.000000000000E+000  0.000000000000E+000  0.000000000000E+000  0.000000000000E+000  0.000000000000E+000  0.000000000000E+000  0.000000000000E+000  0.000000000000E+000  0.000000000000E+000  0.000000000000E+000  0.000000000000E+000  0.000000000000E+000  0.000000000000E+000
    0.000000000000E+000  0.000000000000E+000  0.000000000000E+000  0.000000000000E+000  0.000000000000E+000  0.000000000000E+000  0.000000000000E+000 -7.692307692308E-002  0.000000000000E+000  0.000000000000E+000  0.000000000000E+000  0.000000000000E+000  0.000000000000E+000  0.000000000000E+000  0.000000000000E+000  7.692307692308E-002  0.000000000000E+000  0.000000000000E+000  0.000000000000E+000  0.000000000000E+000  0.000000000000E+000  0.000000000000E+000  0.000000000000E+000  0.000000000000E+000  0.000000000000E+000  0.000000000000E+000  0.000000000000E+000  0.000000000000E+000
    0.000000000000E+000  0.000000000000E+000  0.000000000000E+000  0.000000000000E+000  0.000000000000E+000  0.000000000000E+000  0.000000000000E+000  0.000000000000E+000 -1.000000000000E-002  0.000000000000E+000  0.000000000000E+000  0.000000000000E+000  0.000000000000E+000  0.000000000000E+000  0.000000000000E+000  0.000000000000E+000  0.000000000000E+000  0.000000000000E+000  0.000000000000E+000  0.000000000000E+000  0.000000000000E+000  0.000000000000E+000  0.000000000000E+000  0.000000000000E+000  0.000000000000E+000  0.000000000000E+000  0.000000000000E+000  0.000000000000E+000
    0.000000000000E+000  0.000000000000E+000  0.000000000000E+000  0.000000000000E+000  0.000000000000E+000  0.000000000000E+000  0.000000000000E+000  0.000000000000E+000  0.000000000000E+000 -1.000000000000E-002  0.000000000000E+000  0.000000000000E+000  0.000000000000E+000  0.000000000000E+000  0.000000000000E+000  0.000000000000E+000  0.000000000000E+000  0.000000000000E+000  0.000000000000E+000  0.000000000000E+000  0.000000000000E+000  0.000000000000E+000  0.000000000000E+000  0.000000000000E+000  0.000000000000E+000  0.000000000000E+000  0.000000000000E+000  0.000000000000E+000
    0.000000000000E+000  0.000000000000E+000  0.000000000000E+000  0.000000000000E+000  0.000000000000E+000  0.000000000000E+000  0.000000000000E+000  0.000000000000E+000  0.000000000000E+000  0.000000000000E+000 -1.000000000000E-002  0.000000000000E+000  0.000000000000E+000  0.000000000000E+000  0.000000000000E+000  0.000000000000E+000  0.000000000000E+000  0.000000000000E+000  0.000000000000E+000  0.000000000000E+000  0.000000000000E+000  0.000000000000E+000  0.000000000000E+000  0.000000000000E+000  0.000000000000E+000  0.000000000000E+000  0.000000000000E+000  0.000000000000E+000
    0.000000000000E+000  0.000000000000E+000  0.000000000000E+000  0.000000000000E+000  0.000000000000E+000  0.000000000000E+000  0.000000000000E+000  0.000000000000E+000  0.000000000000E+000  0.000000000000E+000  0.000000000000E+000 -1.000000000000E-002  0.000000000000E+000  0.000000000000E+000  0.000000000000E+000  0.000000000000E+000  0.000000000000E+000  0.000000000000E+000  0.000000000000E+000  0.000000000000E+000  0.000000000000E+000  0.000000000000E+000  0.000000000000E+000  0.000000000000E+000  0.000000000000E+000  0.000000000000E+000  0.000000000000E+000  0.000000000000E+000
    0.000000000000E+000  0.000000000000E+000  0.000000000000E+000  0.000000000000E+000  0.000000000000E+000  0.000000000000E+000  0.000000000000E+000  0.000000000000E+000  0.000000000000E+000  0.000000000000E+000  0.000000000000E+000  0.000000000000E+000 -1.000000000000E-002  0.000000000000E+000  0.000000000000E+000  0.000000000000E+000  0.000000000000E+000  0.000000000000E+000  0.000000000000E+000  0.000000000000E+000  0.000000000000E+000  0.000000000000E+000  0.000000000000E+000  0.000000000000E+000  0.000000000000E+000  0.000000000000E+000  0.000000000000E+000  0.000000000000E+000
    0.000000000000E+000  0.000000000000E+000  0.000000000000E+000  0.000000000000E+000  0.000000000000E+000  0.000000000000E+000  0.000000000000E+000  0.000000000000E+000  0.000000000000E+000  0.000000000000E+000  0.000000000000E+000  0.000000000000E+000  0.000000000000E+000 -1.000000000000E-002  0.000000000000E+000  0.000000000000E+000  0.000000000000E+000  0.000000000000E+000  0.000000000000E+000  0.000000000000E+000  0.000000000000E+000  0.000000000000E+000  0.000000000000E+000  0.000000000000E+000  0.000000000000E+000  0.000000000000E+000  0.000000000000E+000  0.000000000000E+000
    0.000000000000E+000  0.000000000000E+000  0.000000000000E+000  0.000000000000E+000  0.000000000000E+000  0.000000000000E+000  0.000000000000E+000  0.000000000000E+000  0.000000000000E+000  0.000000000000E+000  0.000000000000E+000  0.000000000000E+000  0.000000000000E+000  0.000000000000E+000 -1.000000000000E-002  0.000000000000E+000  0.000000000000E+000  0.000000000000E+000  0.000000000000E+000  0.000000000000E+000  0.000000000000E+000  0.000000000000E+000  0.000000000000E+000  0.000000000000E+000  0.000000000000E+000  0.000000000000E+000  0.000000000000E+000  0.000000000000E+000
    0.000000000000E+000  0.000000000000E+000  0.000000000000E+000  0.000000000000E+000  0.000000000000E+000  0.000000000000E+000  0.000000000000E+000  0.000000000000E+000  0.000000000000E+000  0.000000000000E+000  0.000000000000E+000  0.000000000000E+000  0.000000000000E+000  0.000000000000E+000  0.000000000000E+000 -1.000000000000E-002  0.000000000000E+000  0.000000000000E+000  0.000000000000E+000  0.000000000000E+000  0.000000000000E+000  0.000000000000E+000  0.000000000000E+000  0.000000000000E+000  0.000000000000E+000  0.000000000000E+000  0.000000000000E+000  0.000000000000E+000
    0.000000000000E+000  0.000000000000E+000  1.852038542704E-002 -7.208150657385E-003  0.000000000000E+000  0.000000000000E+000  0.000000000000E+000  0.000000000000E+000  0.000000000000E+000  0.000000000000E+000  0.000000000000E+000  0.000000000000E+000  0.000000000000E+000  0.000000000000E+000  0.000000000000E+000  0.000000000000E+000 -2.260933364812E+000  0.000000000000E+000  0.000000000000E+000  0.000000000000E+000  0.000000000000E+000  0.000000000000E+000  0.000000000000E+000  0.000000000000E+000  0.000000000000E+000  0.000000000000E+000  0.000000000000E+000  0.000000000000E+000
    0.000000000000E+000  0.000000000000E+000  1.628105765938E-001 -6.558663970728E-002  0.000000000000E+000  0.000000000000E+000  0.000000000000E+000  0.000000000000E+000  0.000000000000E+000  0.000000000000E+000  0.000000000000E+000  0.000000000000E+000  0.000000000000E+000  0.000000000000E+000  0.000000000000E+000  0.000000000000E+000  0.000000000000E+000 -8.559247738219E+000  0.000000000000E+000  0.000000000000E+000  0.000000000000E+000  0.000000000000E+000  0.000000000000E+000  0.000000000000E+000  0.000000000000E+000  0.000000000000E+000  0.000000000000E+000  0.000000000000E+000
    0.000000000000E+000  0.000000000000E+000  3.685512292137E-003  8.975813339578E-003  0.000000000000E+000  0.000000000000E+000  0.000000000000E+000  0.000000000000E+000  0.000000000000E+000  0.000000000000E+000  0.000000000000E+000  0.000000000000E+000  0.000000000000E+000  0.000000000000E+000  0.000000000000E+000  0.000000000000E+000  7.293537773775E+001  7.293537773775E+001 -9.499720020220E+000  0.000000000000E+000  0.000000000000E+000  0.000000000000E+000  0.000000000000E+000  0.000000000000E+000  0.000000000000E+000  0.000000000000E+000  0.000000000000E+000  0.000000000000E+000
    0.000000000000E+000  0.000000000000E+000 -1.486684319626E-003 -3.620718068491E-003  0.000000000000E+000  0.000000000000E+000  0.000000000000E+000  0.000000000000E+000  0.000000000000E+000  0.000000000000E+000  0.000000000000E+000  0.000000000000E+000  0.000000000000E+000  0.000000000000E+000  0.000000000000E+000  0.000000000000E+000  0.000000000000E+000  0.000000000000E+000 -1.758814105447E+000 -5.383174678126E+000  0.000000000000E+000  0.000000000000E+000  0.000000000000E+000  0.000000000000E+000  0.000000000000E+000  0.000000000000E+000  0.000000000000E+000  0.000000000000E+000
    0.000000000000E+000  0.000000000000E+000  0.000000000000E+000  0.000000000000E+000  2.741354408832E-002 -6.655721574073E-003  0.000000000000E+000  0.000000000000E+000  0.000000000000E+000  0.000000000000E+000  0.000000000000E+000  0.000000000000E+000  0.000000000000E+000  0.000000000000E+000  0.000000000000E+000  0.000000000000E+000  0.000000000000E+000  0.000000000000E+000  0.000000000000E+000  0.000000000000E+000 -5.509806710280E+000  0.000000000000E+000  0.000000000000E+000  0.000000000000E+000  0.000000000000E+000  0.000000000000E+000  0.000000000000E+000  0.000000000000E+000
    0.000000000000E+000  0.000000000000E+000  0.000000000000E+000  0.000000000000E+000  2.402894431418E-001 -6.545456969231E-002  0.000000000000E+000  0.000000000000E+000  0.000000000000E+000  0.000000000000E+000  0.000000000000E+000  0.000000000000E+000  0.000000000000E+000  0.000000000000E+000  0.000000000000E+000  0.000000000000E+000  0.000000000000E+000  0.000000000000E+000  0.000000000000E+000  0.000000000000E+000  0.000000000000E+000 -2.085855397463E+001  0.000000000000E+000  0.000000000000E+000  0.000000000000E+000  0.000000000000E+000  0.000000000000E+000  0.000000000000E+000
    0.000000000000E+000  0.000000000000E+000  0.000000000000E+000  0.000000000000E+000  4.132916371799E-003  1.477571716544E-002  0.000000000000E+000  0.000000000000E+000  0.000000000000E+000  0.000000000000E+000  0.000000000000E+000  0.000000000000E+000  0.000000000000E+000  0.000000000000E+000  0.000000000000E+000  0.000000000000E+000  0.000000000000E+000  0.000000000000E+000  0.000000000000E+000  0.000000000000E+000  1.777406799911E+002  1.777406799911E+002 -2.315044836252E+001  0.000000000000E+000  0.000000000000E+000  0.000000000000E+000  0.000000000000E+000  0.000000000000E+000
    0.000000000000E+000  0.000000000000E+000  0.000000000000E+000  0.000000000000E+000 -2.543531992646E-003 -9.093459906477E-003  0.000000000000E+000  0.000000000000E+000  0.000000000000E+000  0.000000000000E+000  0.000000000000E+000  0.000000000000E+000  0.000000000000E+000  0.000000000000E+000  0.000000000000E+000  0.000000000000E+000  0.000000000000E+000  0.000000000000E+000  0.000000000000E+000  0.000000000000E+000  0.000000000000E+000  0.000000000000E+000 -5.152394316590E+000 -1.311858740543E+001  0.000000000000E+000  0.000000000000E+000  0.000000000000E+000  0.000000000000E+000