
Linearized model: Predictions were generated on 28-Jul-2023 at 17:47:17 using OpenFAST, compiled on Jul 28 2023 at 17:24:37 as a 64-bit application using double precision at commit -128-NOTFOUND
 linked with  NWTC Subroutine Library; ElastoDyn; InflowWind; AeroDyn

Description from the FAST input file: One Blade, 4 aero-stations, Linearization with continuous States AeroDynamic modules

Simulation information:
   Simulation time:                     1.1000 s
   Rotor Speed:                         1.2671 rad/s
   Azimuth:                             1.3938 rad
   Wind Speed:                         13.0000 m/s
   Number of continuous states:        34
   Number of discrete states:           0
   Number of constraint states:         0
   Number of inputs:                   11
   Number of outputs:                  11
   Jacobians included in this file?    No

Order of continuous states:
   Row/Column Operating Point                                                   Rotating Frame? Derivative Order Description
   ---------- ---------------                                                   --------------- ---------------- -----------
          1    6.244686307999E+000                                                     T               2         ED 1st flapwise bending-mode DOF of blade 1 (internal DOF index = DOF_BF(1,1)), m
          2   -9.975169781376E+000                                                     T               2         ED First time derivative of 1st flapwise bending-mode DOF of blade 1 (internal DOF index = DOF_BF(1,1)), m/s
          3   -1.303013675326E+001                                                     T               2         AD vind (axial) at blade 1, node 1, m/s
          4    0.000000000000E+000                                                     T               2         AD vind (tangential) at blade 1, node 1, m/s
          5   -8.932063693174E-001                                                     T               2         AD vind (axial) at blade 1, node 2, m/s
          6    3.691117474564E-001                                                     T               2         AD vind (tangential) at blade 1, node 2, m/s
          7   -1.265428154636E+000                                                     T               2         AD vind (axial) at blade 1, node 3, m/s
          8    2.846961877434E-001                                                     T               2         AD vind (tangential) at blade 1, node 3, m/s
          9   -1.411520328671E+001                                                     T               2         AD vind (axial) at blade 1, node 4, m/s
         10    0.000000000000E+000                                                     T               2         AD vind (tangential) at blade 1, node 4, m/s
         11   -5.212118268916E+000                                                     T               2         AD First time derivative of vind (axial) at blade 1, node 1, m/s/s
         12    0.000000000000E+000                                                     T               2         AD First time derivative of vind (tangential) at blade 1, node 1, m/s/s
         13   -3.570780418522E-001                                                     T               2         AD First time derivative of vind (axial) at blade 1, node 2, m/s/s
         14    1.476657475889E-001                                                     T               2         AD First time derivative of vind (tangential) at blade 1, node 2, m/s/s
         15   -5.061862212345E-001                                                     T               2         AD First time derivative of vind (axial) at blade 1, node 3, m/s/s
         16    1.142691158356E-001                                                     T               2         AD First time derivative of vind (tangential) at blade 1, node 3, m/s/s
         17   -5.749611780548E+000                                                     T               2         AD First time derivative of vind (axial) at blade 1, node 4, m/s/s
         18    0.000000000000E+000                                                     T               2         AD First time derivative of vind (tangential) at blade 1, node 4, m/s/s
         19    0.000000000000E+000                                                     T               1         AD x1 blade 1, node 1, rad
         20    0.000000000000E+000                                                     T               1         AD x2 blade 1, node 1, rad
         21    0.000000000000E+000                                                     T               1         AD x3 blade 1, node 1, -
         22    0.000000000000E+000                                                     T               1         AD x4 blade 1, node 1, -
         23    6.474575633533E-002                                                     T               1         AD x1 blade 1, node 2, rad
         24    1.593840338610E-001                                                     T               1         AD x2 blade 1, node 2, rad
         25    2.279600107027E+000                                                     T               1         AD x3 blade 1, node 2, -
         26    3.754631058571E-001                                                     T               1         AD x4 blade 1, node 2, -
         27    5.550632374884E-002                                                     T               1         AD x1 blade 1, node 3, rad
         28    1.491542330370E-001                                                     T               1         AD x2 blade 1, node 3, rad
         29    2.125962675145E+000                                                     T               1         AD x3 blade 1, node 3, -
         30    4.481163280746E-001                                                     T               1         AD x4 blade 1, node 3, -
         31   -9.113015095055E-004                                                     T               1         AD x1 blade 1, node 4, rad
         32   -1.941070049926E-003                                                     T               1         AD x2 blade 1, node 4, rad
         33    5.788725264974E-001                                                     T               1         AD x3 blade 1, node 4, -
         34    5.201146159078E-001                                                     T               1         AD x4 blade 1, node 4, -

Order of continuous state derivatives:
   Row/Column Operating Point                                                   Rotating Frame? Derivative Order Description
   ---------- ---------------                                                   --------------- ---------------- -----------
          1   -9.975169781376E+000                                                     T               2         First time derivative of ED 1st flapwise bending-mode DOF of blade 1 (internal DOF index = DOF_BF(1,1)), m/s
          2   -6.381941775272E+000                                                     T               2         First time derivative of ED First time derivative of 1st flapwise bending-mode DOF of blade 1 (internal DOF index = DOF_BF(1,1)), m/s/s
          3    1.160564194006E-003                                                     T               2         First time derivative of AD vind (axial) at blade 1, node 1, m/s/s
          4    0.000000000000E+000                                                     T               2         First time derivative of AD vind (tangential) at blade 1, node 1, m/s/s
          5   -6.145283109761E-004                                                     T               2         First time derivative of AD vind (axial) at blade 1, node 2, m/s/s
          6    1.569585796914E-004                                                     T               2         First time derivative of AD vind (tangential) at blade 1, node 2, m/s/s
          7    1.726746073703E-003                                                     T               2         First time derivative of AD vind (axial) at blade 1, node 3, m/s/s
          8    1.076821676499E-003                                                     T               2         First time derivative of AD vind (tangential) at blade 1, node 3, m/s/s
          9   -4.150787324253E-001                                                     T               2         First time derivative of AD vind (axial) at blade 1, node 4, m/s/s
         10    0.000000000000E+000                                                     T               2         First time derivative of AD vind (tangential) at blade 1, node 4, m/s/s
         11    3.026921122998E-004                                                     T               2         First time derivative of AD First time derivative of vind (axial) at blade 1, node 1, m/s/s/s
         12    0.000000000000E+000                                                     T               2         First time derivative of AD First time derivative of vind (tangential) at blade 1, node 1, m/s/s/s
         13   -1.476602414734E-004                                                     T               2         First time derivative of AD First time derivative of vind (axial) at blade 1, node 2, m/s/s/s
         14    3.649299163198E-005                                                     T               2         First time derivative of AD First time derivative of vind (tangential) at blade 1, node 2, m/s/s/s
         15    2.995327038329E-004                                                     T               2         First time derivative of AD First time derivative of vind (axial) at blade 1, node 3, m/s/s/s
         16    1.801263933832E-004                                                     T               2         First time derivative of AD First time derivative of vind (tangential) at blade 1, node 3, m/s/s/s
         17   -3.424798237915E-002                                                     T               2         First time derivative of AD First time derivative of vind (axial) at blade 1, node 4, m/s/s/s
         18    0.000000000000E+000                                                     T               2         First time derivative of AD First time derivative of vind (tangential) at blade 1, node 4, m/s/s/s
         19    0.000000000000E+000                                                     T               1         First time derivative of AD x1 blade 1, node 1, rad/s
         20    0.000000000000E+000                                                     T               1         First time derivative of AD x2 blade 1, node 1, rad/s
         21    0.000000000000E+000                                                     T               1         First time derivative of AD x3 blade 1, node 1, -/s
         22    0.000000000000E+000                                                     T               1         First time derivative of AD x4 blade 1, node 1, -/s
         23    1.039582312750E-002                                                     T               1         First time derivative of AD x1 blade 1, node 2, rad/s
         24    2.069725516257E-002                                                     T               1         First time derivative of AD x2 blade 1, node 2, rad/s
         25    3.735186658221E-001                                                     T               1         First time derivative of AD x3 blade 1, node 2, -/s
         26   -1.343410996796E-001                                                     T               1         First time derivative of AD x4 blade 1, node 2, -/s
         27    5.305104635307E-002                                                     T               1         First time derivative of AD x1 blade 1, node 3, rad/s
         28    5.896690266071E-002                                                     T               1         First time derivative of AD x2 blade 1, node 3, rad/s
         29    1.163887563659E+000                                                     T               1         First time derivative of AD x3 blade 1, node 3, -/s
         30   -5.597068774887E-001                                                     T               1         First time derivative of AD x4 blade 1, node 3, -/s
         31    1.697605649780E-003                                                     T               1         First time derivative of AD x1 blade 1, node 4, rad/s
         32    4.032726348715E-003                                                     T               1         First time derivative of AD x2 blade 1, node 4, rad/s
         33    3.103318421552E-002                                                     T               1         First time derivative of AD x3 blade 1, node 4, -/s
         34    1.203294011644E-002                                                     T               1         First time derivative of AD x4 blade 1, node 4, -/s

Order of inputs:
     Column   Operating Point                                                   Rotating Frame? Derivative Order Description
   ---------- ---------------                                                   --------------- ---------------- -----------
          1    1.300000000000E+001                                                     F               0         IfW Extended input: horizontal wind speed (steady/uniform wind), m/s
          2    2.000000000000E-001                                                     F               0         IfW Extended input: vertical power-law shear exponent, -
          3    0.000000000000E+000                                                     F               0         IfW Extended input: propagation direction, rad
          4    0.000000000000E+000                                                     T               0         ED Blade 1 pitch command, rad
          5    0.000000000000E+000                                                     F               0         ED Yaw moment, Nm
          6    0.000000000000E+000                                                     F               0         ED Generator torque, Nm
          7    0.000000000000E+000                                                     F               0         ED Extended input: collective blade-pitch command, rad
          8    0.000000000000E+000                                                     T               0         AD User property on blade 1, node 1, -
          9    0.000000000000E+000                                                     T               0         AD User property on blade 1, node 2, -
         10    0.000000000000E+000                                                     T               0         AD User property on blade 1, node 3, -
         11    0.000000000000E+000                                                     T               0         AD User property on blade 1, node 4, -

Order of outputs:
        Row   Operating Point                                                   Rotating Frame? Derivative Order Description
   ---------- ---------------                                                   --------------- ---------------- -----------
          1    1.300000000000E+001                                                     F               0         IfW Wind1VelX, (m/s)
          2   -0.000000000000E+000                                                     F               0         IfW Wind1VelY, (m/s)
          3    0.000000000000E+000                                                     F               0         IfW Wind1VelZ, (m/s)
          4    3.203902818609E+002                                                     F               0         ED TwrBsFxt, (kN)
          5    3.177456712807E+004                                                     F               0         ED TwrBsMyt, (kN-m)
          6    6.244686307999E+000                                                     F               0         ED Q_B1F1, (m)
          7    8.778806155890E-002                                                     F               0         AD RtAeroCp, (-)
          8    1.384706475422E-001                                                     F               0         AD RtAeroCt, (-)
          9    1.509771664417E+000                                                     T               0         AD B1N1Cl, (-)
         10    7.500526646744E-002                                                     T               0         AD B1N1AxInd, (-)
         11    5.011850392005E-003                                                     T               0         AD B1N1TnInd, (-)


Linearized state matrices:

A: 34 x 34
    0.000000000000E+000  1.000000000000E+000  0.000000000000E+000  0.000000000000E+000  0.000000000000E+000  0.000000000000E+000  0.000000000000E+000  0.000000000000E+000  0.000000000000E+000  0.000000000000E+000  0.000000000000E+000  0.000000000000E+000  0.000000000000E+000  0.000000000000E+000  0.000000000000E+000  0.000000000000E+000  0.000000000000E+000  0.000000000000E+000  0.000000000000E+000  0.000000000000E+000  0.000000000000E+000  0.000000000000E+000  0.000000000000E+000  0.000000000000E+000  0.000000000000E+000  0.000000000000E+000  0.000000000000E+000  0.000000000000E+000  0.000000000000E+000  0.000000000000E+000  0.000000000000E+000  0.000000000000E+000  0.000000000000E+000  0.000000000000E+000
   -1.600448854105E+001 -4.958138253088E-002  0.000000000000E+000  0.000000000000E+000  1.861930224916E-001  4.169408977551E-001  6.216080825055E-001  2.020057553087E+000  0.000000000000E+000  0.000000000000E+000  0.000000000000E+000  0.000000000000E+000  0.000000000000E+000  0.000000000000E+000  0.000000000000E+000  0.000000000000E+000  0.000000000000E+000  0.000000000000E+000  0.000000000000E+000  0.000000000000E+000  0.000000000000E+000  0.000000000000E+000  2.184947810069E+001  2.184947810069E+001  0.000000000000E+000  6.764089742784E+000  1.976785939751E+002  1.976785939751E+002  0.000000000000E+000  4.998666051161E+001  1.774394688180E+002  1.774394688180E+002  0.000000000000E+000  9.401797122767E+000
    3.797618265239E-020 -1.890244758216E-021 -2.565071974878E-002  0.000000000000E+000  7.885029448670E-022  1.764618182393E-021  3.436589483269E-021  1.118049937742E-020  0.000000000000E+000  0.000000000000E+000  2.565071974878E-002  0.000000000000E+000  0.000000000000E+000  0.000000000000E+000  0.000000000000E+000  0.000000000000E+000  0.000000000000E+000  0.000000000000E+000  0.000000000000E+000  0.000000000000E+000  0.000000000000E+000  0.000000000000E+000  9.313992313436E-020  9.313992313436E-020  0.000000000000E+000  2.873614819924E-020  1.087887218838E-018  1.087887218838E-018  0.000000000000E+000  2.760382649468E-019  9.274256539396E-019  9.274256539396E-019  0.000000000000E+000  4.917343468674E-020
    0.000000000000E+000  0.000000000000E+000  0.000000000000E+000 -2.565071974878E-002  0.000000000000E+000  0.000000000000E+000  0.000000000000E+000  0.000000000000E+000  0.000000000000E+000  0.000000000000E+000  0.000000000000E+000  2.565071974878E-002  0.000000000000E+000  0.000000000000E+000  0.000000000000E+000  0.000000000000E+000  0.000000000000E+000  0.000000000000E+000  0.000000000000E+000  0.000000000000E+000  0.000000000000E+000  0.000000000000E+000  0.000000000000E+000  0.000000000000E+000  0.000000000000E+000  0.000000000000E+000  0.000000000000E+000  0.000000000000E+000  0.000000000000E+000  0.000000000000E+000  0.000000000000E+000  0.000000000000E+000  0.000000000000E+000  0.000000000000E+000
   -9.668306028038E-006 -7.858490208950E-005  0.000000000000E+000  0.000000000000E+000 -2.840072093401E-002  2.396306275722E-021  3.381654698399E-021  1.097657331077E-020  0.000000000000E+000  0.000000000000E+000  0.000000000000E+000  0.000000000000E+000  2.840072093401E-002  0.000000000000E+000  0.000000000000E+000  0.000000000000E+000  0.000000000000E+000  0.000000000000E+000  0.000000000000E+000  0.000000000000E+000  0.000000000000E+000  0.000000000000E+000  1.305715354344E-019  1.305715354344E-019  0.000000000000E+000  3.969774373861E-020  1.080882531824E-018  1.080882531824E-018  0.000000000000E+000  2.723690330805E-019 -3.265384892052E-019 -3.265384892052E-019  0.000000000000E+000 -1.748165423621E-020
   -2.653913372813E-006 -1.515306280202E-005  0.000000000000E+000  0.000000000000E+000 -2.366284938867E-022 -2.840072093401E-002 -4.583992211549E-022 -1.484904788390E-021  0.000000000000E+000  0.000000000000E+000  0.000000000000E+000  0.000000000000E+000  0.000000000000E+000  2.840072093401E-002  0.000000000000E+000  0.000000000000E+000  0.000000000000E+000  0.000000000000E+000  0.000000000000E+000  0.000000000000E+000  0.000000000000E+000  0.000000000000E+000 -2.921940009296E-020 -2.921940009296E-020  0.000000000000E+000 -8.815746250071E-021 -1.478925466478E-019 -1.478925466478E-019  0.000000000000E+000 -3.705090063577E-020  2.859724652675E-019  2.859724652675E-019  0.000000000000E+000  1.527811876337E-020
   -5.478936708372E-005 -3.433914264052E-004  0.000000000000E+000  0.000000000000E+000  2.192663719803E-021  4.890075616948E-021 -3.846401513958E-002  1.665460924160E-020  0.000000000000E+000  0.000000000000E+000  0.000000000000E+000  0.000000000000E+000  0.000000000000E+000  0.000000000000E+000  3.846401513958E-002  0.000000000000E+000  0.000000000000E+000  0.000000000000E+000  0.000000000000E+000  0.000000000000E+000  0.000000000000E+000  0.000000000000E+000  2.689140468701E-019  2.689140468701E-019  0.000000000000E+000  8.152496681924E-020  1.693604934848E-018  1.693604934848E-018  0.000000000000E+000  4.192559088824E-019 -2.229493157460E-018 -2.229493157460E-018  0.000000000000E+000 -1.201703845243E-019
   -1.425580442543E-005 -1.201314913374E-004  0.000000000000E+000  0.000000000000E+000 -2.286563813576E-022 -5.072963958197E-022 -5.655525850335E-022 -3.846401513958E-002  0.000000000000E+000  0.000000000000E+000  0.000000000000E+000  0.000000000000E+000  0.000000000000E+000  0.000000000000E+000  0.000000000000E+000  3.846401513958E-002  0.000000000000E+000  0.000000000000E+000  0.000000000000E+000  0.000000000000E+000  0.000000000000E+000  0.000000000000E+000 -2.954555560254E-020 -2.954555560254E-020  0.000000000000E+000 -8.721594664130E-021 -1.914691573025E-019 -1.914691573025E-019  0.000000000000E+000 -4.643561260995E-020  7.795892236040E-019  7.795892236040E-019  0.000000000000E+000  4.184014722061E-020
    8.633397543839E-003  4.789533311504E-002  0.000000000000E+000  0.000000000000E+000 -1.092070452733E-020 -2.577632959480E-020  3.098573141312E-019  1.005684305942E-018 -7.692307692308E-002  0.000000000000E+000  0.000000000000E+000  0.000000000000E+000  0.000000000000E+000  0.000000000000E+000  0.000000000000E+000  0.000000000000E+000  7.692307692308E-002  0.000000000000E+000  0.000000000000E+000  0.000000000000E+000  0.000000000000E+000  0.000000000000E+000 -5.093247683380E-019 -5.093247683380E-019  0.000000000000E+000 -2.708642275329E-019  9.919971987546E-017  9.919971987546E-017  0.000000000000E+000  2.499873457236E-017 -5.442847976554E-017 -5.442847976554E-017  0.000000000000E+000 -2.956913125512E-018
    0.000000000000E+000  0.000000000000E+000  0.000000000000E+000  0.000000000000E+000  0.000000000000E+000  0.000000000000E+000  0.000000000000E+000  0.000000000000E+000  0.000000000000E+000 -7.692307692308E-002  0.000000000000E+000  0.000000000000E+000  0.000000000000E+000  0.000000000000E+000  0.000000000000E+000  0.000000000000E+000  0.000000000000E+000  7.692307692308E-002  0.000000000000E+000  0.000000000000E+000  0.000000000000E+000  0.000000000000E+000  0.000000000000E+000  0.000000000000E+000  0.000000000000E+000  0.000000000000E+000  0.000000000000E+000  0.000000000000E+000  0.000000000000E+000  0.000000000000E+000  0.000000000000E+000  0.000000000000E+000  0.000000000000E+000  0.000000000000E+000
    9.870075908020E-021 -4.912778996012E-022  0.000000000000E+000  0.000000000000E+000  2.049332864962E-022  4.586273340930E-022  8.931755825765E-022  2.905831229927E-021  0.000000000000E+000  0.000000000000E+000 -1.000000000000E-002  0.000000000000E+000  0.000000000000E+000  0.000000000000E+000  0.000000000000E+000  0.000000000000E+000  0.000000000000E+000  0.000000000000E+000  0.000000000000E+000  0.000000000000E+000  0.000000000000E+000  0.000000000000E+000  2.420722798334E-020  2.420722798334E-020  0.000000000000E+000  7.468574886180E-021  2.827437798997E-019  2.827437798997E-019  0.000000000000E+000  7.174282506176E-020  2.410395401565E-019  2.410395401565E-019  0.000000000000E+000  1.278026118262E-020
    0.000000000000E+000  0.000000000000E+000  0.000000000000E+000  0.000000000000E+000  0.000000000000E+000  0.000000000000E+000  0.000000000000E+000  0.000000000000E+000  0.000000000000E+000  0.000000000000E+000  0.000000000000E+000 -1.000000000000E-002  0.000000000000E+000  0.000000000000E+000  0.000000000000E+000  0.000000000000E+000  0.000000000000E+000  0.000000000000E+000  0.000000000000E+000  0.000000000000E+000  0.000000000000E+000  0.000000000000E+000  0.000000000000E+000  0.000000000000E+000  0.000000000000E+000  0.000000000000E+000  0.000000000000E+000  0.000000000000E+000  0.000000000000E+000  0.000000000000E+000  0.000000000000E+000  0.000000000000E+000  0.000000000000E+000  0.000000000000E+000
   -2.269497794440E-006 -1.844669184563E-005  0.000000000000E+000  0.000000000000E+000  2.520339056332E-022  5.624989312277E-022  7.937955064019E-022  2.576594994725E-021  0.000000000000E+000  0.000000000000E+000  0.000000000000E+000  0.000000000000E+000 -1.000000000000E-002  0.000000000000E+000  0.000000000000E+000  0.000000000000E+000  0.000000000000E+000  0.000000000000E+000  0.000000000000E+000  0.000000000000E+000  0.000000000000E+000  0.000000000000E+000  3.064981712677E-020  3.064981712677E-020  0.000000000000E+000  9.318482637783E-021  2.537218531260E-019  2.537218531260E-019  0.000000000000E+000  6.393476975774E-020 -7.665028174553E-020 -7.665028174553E-020  0.000000000000E+000 -4.103570534195E-021
   -6.229685457585E-007 -3.556966702179E-006  0.000000000000E+000  0.000000000000E+000 -5.554518479454E-023 -1.237857851312E-022 -1.076027194802E-022 -3.485603509480E-022  0.000000000000E+000  0.000000000000E+000  0.000000000000E+000  0.000000000000E+000  0.000000000000E+000 -1.000000000000E-002  0.000000000000E+000  0.000000000000E+000  0.000000000000E+000  0.000000000000E+000  0.000000000000E+000  0.000000000000E+000  0.000000000000E+000  0.000000000000E+000 -6.858839994672E-021 -6.858839994672E-021  0.000000000000E+000 -2.069371471368E-021 -3.471567898844E-020 -3.471567898844E-020  0.000000000000E+000 -8.697173737681E-021  6.712798263863E-020  6.712798263863E-020  0.000000000000E+000  3.586321816471E-021
   -9.496212132281E-006 -5.951734803885E-005  0.000000000000E+000  0.000000000000E+000  3.800372394555E-022  8.475585295680E-022  8.947660112451E-022  2.886613055720E-021  0.000000000000E+000  0.000000000000E+000  0.000000000000E+000  0.000000000000E+000  0.000000000000E+000  0.000000000000E+000 -1.000000000000E-002  0.000000000000E+000  0.000000000000E+000  0.000000000000E+000  0.000000000000E+000  0.000000000000E+000  0.000000000000E+000  0.000000000000E+000  4.660876681650E-020  4.660876681650E-020  0.000000000000E+000  1.413008436126E-020  2.935392866470E-019  2.935392866470E-019  0.000000000000E+000  7.266634495661E-020 -3.864205976017E-019 -3.864205976017E-019  0.000000000000E+000 -2.082819211466E-020
   -2.470846993603E-006 -2.082145106302E-005  0.000000000000E+000  0.000000000000E+000 -3.963122077052E-023 -8.792571341963E-023 -9.802280269513E-023 -3.138755257913E-022  0.000000000000E+000  0.000000000000E+000  0.000000000000E+000  0.000000000000E+000  0.000000000000E+000  0.000000000000E+000  0.000000000000E+000 -1.000000000000E-002  0.000000000000E+000  0.000000000000E+000  0.000000000000E+000  0.000000000000E+000  0.000000000000E+000  0.000000000000E+000 -5.120899884445E-021 -5.120899884445E-021  0.000000000000E+000 -1.511645734761E-021 -3.318585030843E-020 -3.318585030843E-020  0.000000000000E+000 -8.048321258443E-021  1.351200978846E-019  1.351200978846E-019  0.000000000000E+000  7.251825213562E-021
    7.482277871327E-004  4.150928869970E-003  0.000000000000E+000  0.000000000000E+000 -9.464610590350E-022 -2.233948564883E-021  2.685430055804E-020  8.715930651496E-020  0.000000000000E+000  0.000000000000E+000  0.000000000000E+000  0.000000000000E+000  0.000000000000E+000  0.000000000000E+000  0.000000000000E+000  0.000000000000E+000 -1.000000000000E-002  0.000000000000E+000  0.000000000000E+000  0.000000000000E+000  0.000000000000E+000  0.000000000000E+000 -4.414147992263E-020 -4.414147992263E-020  0.000000000000E+000 -2.347489971952E-020  8.597309055872E-018  8.597309055872E-018  0.000000000000E+000  2.166556996271E-018 -4.717134913013E-018 -4.717134913013E-018  0.000000000000E+000 -2.562658042110E-019
    0.000000000000E+000  0.000000000000E+000  0.000000000000E+000  0.000000000000E+000  0.000000000000E+000  0.000000000000E+000  0.000000000000E+000  0.000000000000E+000  0.000000000000E+000  0.000000000000E+000  0.000000000000E+000  0.000000000000E+000  0.000000000000E+000  0.000000000000E+000  0.000000000000E+000  0.000000000000E+000  0.000000000000E+000 -1.000000000000E-002  0.000000000000E+000  0.000000000000E+000  0.000000000000E+000  0.000000000000E+000  0.000000000000E+000  0.000000000000E+000  0.000000000000E+000  0.000000000000E+000  0.000000000000E+000  0.000000000000E+000  0.000000000000E+000  0.000000000000E+000  0.000000000000E+000  0.000000000000E+000  0.000000000000E+000  0.000000000000E+000