
Linearized model: Predictions were generated on 20-Feb-2024 at 14:17:30 using OpenFAST, compiled on Feb 20 2024 at 13:58:53 as a 64-bit application using double precision at commit v3.5.2-957-g05b14cf4
 linked with  NWTC Subroutine Library; ElastoDyn; InflowWind; AeroDyn

Description from the FAST input file: One Blade, 4 aero-stations, Linearization with continuous States AeroDynamic modules

Simulation information:
   Simulation time:                     1.1000 s
   Rotor Speed:                         1.2671 rad/s
   Azimuth:                             1.3938 rad
   Wind Speed:                         13.0000 m/s
   Number of continuous states:        30
   Number of discrete states:           0
   Number of constraint states:         0
   Number of inputs:                   14
   Number of outputs:                  31
   Jacobians included in this file?    No

Order of continuous states:
   Row/Column Operating Point                                                   Rotating Frame? Derivative Order Description
   ---------- ---------------                                                   --------------- ---------------- -----------
          1    6.244686307999E+000                                                     T               2         ED 1st flapwise bending-mode DOF of blade 1 (internal DOF index = DOF_BF(1,1)), m
          2   -9.975169781376E+000                                                     T               2         ED First time derivative of 1st flapwise bending-mode DOF of blade 1 (internal DOF index = DOF_BF(1,1)), m/s
          3   -1.303013675326E+001                                                     T               2         AD vind (axial) at blade 1, node 1, m/s
          4    0.000000000000E+000                                                     T               2         AD vind (tangential) at blade 1, node 1, m/s
          5   -8.932063693174E-001                                                     T               2         AD vind (axial) at blade 1, node 2, m/s
          6    3.691117474564E-001                                                     T               2         AD vind (tangential) at blade 1, node 2, m/s
          7   -1.265428154636E+000                                                     T               2         AD vind (axial) at blade 1, node 3, m/s
          8    2.846961877434E-001                                                     T               2         AD vind (tangential) at blade 1, node 3, m/s
          9   -1.411520328671E+001                                                     T               2         AD vind (axial) at blade 1, node 4, m/s
         10    0.000000000000E+000                                                     T               2         AD vind (tangential) at blade 1, node 4, m/s
         11   -5.212118268916E+000                                                     T               2         AD First time derivative of vind (axial) at blade 1, node 1, m/s/s
         12    0.000000000000E+000                                                     T               2         AD First time derivative of vind (tangential) at blade 1, node 1, m/s/s
         13   -3.570780418522E-001                                                     T               2         AD First time derivative of vind (axial) at blade 1, node 2, m/s/s
         14    1.476657475889E-001                                                     T               2         AD First time derivative of vind (tangential) at blade 1, node 2, m/s/s
         15   -5.061862212345E-001                                                     T               2         AD First time derivative of vind (axial) at blade 1, node 3, m/s/s
         16    1.142691158356E-001                                                     T               2         AD First time derivative of vind (tangential) at blade 1, node 3, m/s/s
         17   -5.749611780548E+000                                                     T               2         AD First time derivative of vind (axial) at blade 1, node 4, m/s/s
         18    0.000000000000E+000                                                     T               2         AD First time derivative of vind (tangential) at blade 1, node 4, m/s/s
         19    6.474575633533E-002                                                     T               1         AD x1 blade 1, node 2, rad
         20    1.593840338610E-001                                                     T               1         AD x2 blade 1, node 2, rad
         21    2.279600107027E+000                                                     T               1         AD x3 blade 1, node 2, -
         22    3.754631058571E-001                                                     T               1         AD x4 blade 1, node 2, -
         23    5.550632374884E-002                                                     T               1         AD x1 blade 1, node 3, rad
         24    1.491542330370E-001                                                     T               1         AD x2 blade 1, node 3, rad
         25    2.125962675145E+000                                                     T               1         AD x3 blade 1, node 3, -
         26    4.481163280746E-001                                                     T               1         AD x4 blade 1, node 3, -
         27   -9.113015095055E-004                                                     T               1         AD x1 blade 1, node 4, rad
         28   -1.941070049926E-003                                                     T               1         AD x2 blade 1, node 4, rad
         29    5.788725264974E-001                                                     T               1         AD x3 blade 1, node 4, -
         30    5.201146159078E-001                                                     T               1         AD x4 blade 1, node 4, -

Order of continuous state derivatives:
   Row/Column Operating Point                                                   Rotating Frame? Derivative Order Description
   ---------- ---------------                                                   --------------- ---------------- -----------
          1   -9.975169781376E+000                                                     T               2         First time derivative of ED 1st flapwise bending-mode DOF of blade 1 (internal DOF index = DOF_BF(1,1)), m/s
          2   -6.381941775272E+000                                                     T               2         First time derivative of ED First time derivative of 1st flapwise bending-mode DOF of blade 1 (internal DOF index = DOF_BF(1,1)), m/s/s
          3    1.160564194006E-003                                                     T               2         First time derivative of AD vind (axial) at blade 1, node 1, m/s/s
          4    0.000000000000E+000                                                     T               2         First time derivative of AD vind (tangential) at blade 1, node 1, m/s/s
          5   -6.145283109761E-004                                                     T               2         First time derivative of AD vind (axial) at blade 1, node 2, m/s/s
          6    1.569585796914E-004                                                     T               2         First time derivative of AD vind (tangential) at blade 1, node 2, m/s/s
          7    1.726746073703E-003                                                     T               2         First time derivative of AD vind (axial) at blade 1, node 3, m/s/s
          8    1.076821676499E-003                                                     T               2         First time derivative of AD vind (tangential) at blade 1, node 3, m/s/s
          9   -4.150787324253E-001                                                     T               2         First time derivative of AD vind (axial) at blade 1, node 4, m/s/s
         10    0.000000000000E+000                                                     T               2         First time derivative of AD vind (tangential) at blade 1, node 4, m/s/s
         11    3.026921122998E-004                                                     T               2         First time derivative of AD First time derivative of vind (axial) at blade 1, node 1, m/s/s/s
         12    0.000000000000E+000                                                     T               2         First time derivative of AD First time derivative of vind (tangential) at blade 1, node 1, m/s/s/s
         13   -1.476602414734E-004                                                     T               2         First time derivative of AD First time derivative of vind (axial) at blade 1, node 2, m/s/s/s
         14    3.649299163198E-005                                                     T               2         First time derivative of AD First time derivative of vind (tangential) at blade 1, node 2, m/s/s/s
         15    2.995327038329E-004                                                     T               2         First time derivative of AD First time derivative of vind (axial) at blade 1, node 3, m/s/s/s
         16    1.801263933832E-004                                                     T               2         First time derivative of AD First time derivative of vind (tangential) at blade 1, node 3, m/s/s/s
         17   -3.424798237915E-002                                                     T               2         First time derivative of AD First time derivative of vind (axial) at blade 1, node 4, m/s/s/s
         18    0.000000000000E+000                                                     T               2         First time derivative of AD First time derivative of vind (tangential) at blade 1, node 4, m/s/s/s
         19    1.039582312750E-002                                                     T               1         First time derivative of AD x1 blade 1, node 2, rad/s
         20    2.069725516257E-002                                                     T               1         First time derivative of AD x2 blade 1, node 2, rad/s
         21    3.735186658221E-001                                                     T               1         First time derivative of AD x3 blade 1, node 2, -/s
         22   -1.343410996796E-001                                                     T               1         First time derivative of AD x4 blade 1, node 2, -/s
         23    5.305104635307E-002                                                     T               1         First time derivative of AD x1 blade 1, node 3, rad/s
         24    5.896690266071E-002                                                     T               1         First time derivative of AD x2 blade 1, node 3, rad/s
         25    1.163887563659E+000                                                     T               1         First time derivative of AD x3 blade 1, node 3, -/s
         26   -5.597068774887E-001                                                     T               1         First time derivative of AD x4 blade 1, node 3, -/s
         27    1.697605649780E-003                                                     T               1         First time derivative of AD x1 blade 1, node 4, rad/s
         28    4.032726348714E-003                                                     T               1         First time derivative of AD x2 blade 1, node 4, rad/s
         29    3.103318421552E-002                                                     T               1         First time derivative of AD x3 blade 1, node 4, -/s
         30    1.203294011644E-002                                                     T               1         First time derivative of AD x4 blade 1, node 4, -/s

Order of inputs:
     Column   Operating Point                                                   Rotating Frame? Derivative Order Description
   ---------- ---------------                                                   --------------- ---------------- -----------
          1    1.300000000000E+001                                                     F               0         IfW Extended input: horizontal wind speed (steady/uniform wind), m/s
          2    2.000000000000E-001                                                     F               0         IfW Extended input: vertical power-law shear exponent, -
          3    0.000000000000E+000                                                     F               0         IfW Extended input: propagation direction, rad
          4    0.000000000000E+000                                                     T               0         ED Blade 1 pitch command, rad
          5    0.000000000000E+000                                                     F               0         ED Yaw moment, Nm
          6    0.000000000000E+000                                                     F               0         ED Generator torque, Nm
          7    0.000000000000E+000                                                     F               0         ED Extended input: collective blade-pitch command, rad
          8    0.000000000000E+000                                                     T               0         AD User property on blade 1, node 1, -
          9    0.000000000000E+000                                                     T               0         AD User property on blade 1, node 2, -
         10    0.000000000000E+000                                                     T               0         AD User property on blade 1, node 3, -
         11    0.000000000000E+000                                                     T               0         AD User property on blade 1, node 4, -
         12    1.300000000000E+001                                                     F               0         AD Extended input: horizontal wind speed (steady/uniform wind), m/s
         13    2.000000000000E-001                                                     F               0         AD Extended input: vertical power-law shear exponent, -
         14    0.000000000000E+000                                                     F               0         AD Extended input: propagation direction, rad

Order of outputs:
        Row   Operating Point                                                   Rotating Frame? Derivative Order Description
   ---------- ---------------                                                   --------------- ---------------- -----------
          1    1.300000000000E+001                                                     F               0         IfW Wind1VelX, (m/s)
          2   -0.000000000000E+000                                                     F               0         IfW Wind1VelY, (m/s)
          3    0.000000000000E+000                                                     F               0         IfW Wind1VelZ, (m/s)
          4    3.203902818609E+002                                                     F               0         ED TwrBsFxt, (kN)
          5    3.177456712807E+004                                                     F               0         ED TwrBsMyt, (kN-m)
          6    6.244686307999E+000                                                     F               0         ED Q_B1F1, (m)
          7    8.778806155890E-002                                                     F               0         AD RtAeroCp, (-)
          8    1.384706475422E-001                                                     F               0         AD RtAeroCt, (-)
          9    1.509771664417E+000                                                     T               0         AD B1N1Cl, (-)
         10    7.500526646744E-002                                                     T               0         AD B1N1AxInd, (-)
         11    5.011850392005E-003                                                     T               0         AD B1N1TnInd, (-)
         12    0.000000000000E+000                                                     T               0         AD AB1N001UA_Flag, (-)
         13    1.000000000000E+000                                                     T               0         AD AB1N002UA_Flag, (-)
         14    1.000000000000E+000                                                     T               0         AD AB1N003UA_Flag, (-)
         15    1.000000000000E+000                                                     T               0         AD AB1N004UA_Flag, (-)
         16    0.000000000000E+000                                                     T               0         AD AB1N001UA_x1, (rad)
         17    6.474575633533E-002                                                     T               0         AD AB1N002UA_x1, (rad)
         18    5.550632374884E-002                                                     T               0         AD AB1N003UA_x1, (rad)
         19   -9.113015095055E-004                                                     T               0         AD AB1N004UA_x1, (rad)
         20    0.000000000000E+000                                                     T               0         AD AB1N001UA_x2, (rad)
         21    1.593840338610E-001                                                     T               0         AD AB1N002UA_x2, (rad)
         22    1.491542330370E-001                                                     T               0         AD AB1N003UA_x2, (rad)
         23   -1.941070049926E-003                                                     T               0         AD AB1N004UA_x2, (rad)
         24    0.000000000000E+000                                                     T               0         AD AB1N001UA_x3, (-)
         25    2.279600107027E+000                                                     T               0         AD AB1N002UA_x3, (-)
         26    2.125962675145E+000                                                     T               0         AD AB1N003UA_x3, (-)
         27    5.788725264974E-001                                                     T               0         AD AB1N004UA_x3, (-)
         28    0.000000000000E+000                                                     T               0         AD AB1N001UA_x4, (-)
         29    3.754631058571E-001                                                     T               0         AD AB1N002UA_x4, (-)
         30    4.481163280746E-001                                                     T               0         AD AB1N003UA_x4, (-)
         31    5.201146159078E-001                                                     T               0         AD AB1N004UA_x4, (-)


Linearized state matrices:

A: 30 x 30
    0.000000000000E+000  1.000000000000E+000  0.000000000000E+000  0.000000000000E+000  0.000000000000E+000  0.000000000000E+000  0.000000000000E+000  0.000000000000E+000  0.000000000000E+000  0.000000000000E+000  0.000000000000E+000  0.000000000000E+000  0.000000000000E+000  0.000000000000E+000  0.000000000000E+000  0.000000000000E+000  0.000000000000E+000  0.000000000000E+000  0.000000000000E+000  0.000000000000E+000  0.000000000000E+000  0.000000000000E+000  0.000000000000E+000  0.000000000000E+000  0.000000000000E+000  0.000000000000E+000  0.000000000000E+000  0.000000000000E+000  0.000000000000E+000  0.000000000000E+000
   -1.600180412417E+001 -4.958138253085E-002  0.000000000000E+000  0.000000000000E+000  1.861930224915E-001  4.169408977551E-001  6.216080825055E-001  2.020057553087E+000  0.000000000000E+000  0.000000000000E+000  0.000000000000E+000  0.000000000000E+000  0.000000000000E+000  0.000000000000E+000  0.000000000000E+000  0.000000000000E+000  0.000000000000E+000  0.000000000000E+000  2.208583049937E+001  2.208583049937E+001  0.000000000000E+000  6.764089768370E+000  1.977629672098E+002  1.977629672098E+002  0.000000000000E+000  4.998666056289E+001  1.771186099716E+002  1.771186099716E+002  0.000000000000E+000  9.401797123652E+000
    2.106009922503E-020  6.431418287680E-022 -2.565071974878E-002  0.000000000000E+000 -2.361233972142E-022 -5.288362113603E-022 -8.140760906659E-022 -2.651879691424E-021  0.000000000000E+000  0.000000000000E+000  2.565071974878E-002  0.000000000000E+000  0.000000000000E+000  0.000000000000E+000  0.000000000000E+000  0.000000000000E+000  0.000000000000E+000  0.000000000000E+000 -2.794024498280E-020 -2.794024498280E-020  0.000000000000E+000 -8.564430839242E-021 -2.569624410652E-019 -2.569624410652E-019  0.000000000000E+000 -6.526215662273E-020 -1.889450337512E-019 -1.889450337512E-019  0.000000000000E+000 -1.006558923559E-020
    0.000000000000E+000  0.000000000000E+000  0.000000000000E+000 -2.565071974878E-002  0.000000000000E+000  0.000000000000E+000  0.000000000000E+000  0.000000000000E+000  0.000000000000E+000  0.000000000000E+000  0.000000000000E+000  2.565071974878E-002  0.000000000000E+000  0.000000000000E+000  0.000000000000E+000  0.000000000000E+000  0.000000000000E+000  0.000000000000E+000  0.000000000000E+000  0.000000000000E+000  0.000000000000E+000  0.000000000000E+000  0.000000000000E+000  0.000000000000E+000  0.000000000000E+000  0.000000000000E+000  0.000000000000E+000  0.000000000000E+000  0.000000000000E+000  0.000000000000E+000
   -9.187853125155E-006 -7.858490208950E-005  0.000000000000E+000  0.000000000000E+000 -2.840072093401E-002  8.376089003069E-022 -2.479345367583E-021 -8.292281879239E-021  0.000000000000E+000  0.000000000000E+000  0.000000000000E+000  0.000000000000E+000  2.840072093401E-002  0.000000000000E+000  0.000000000000E+000  0.000000000000E+000  0.000000000000E+000  0.000000000000E+000  5.023004342644E-020  5.023004342644E-020  0.000000000000E+000  1.460467562623E-020 -7.152196372858E-019 -7.152196372858E-019  0.000000000000E+000 -1.928336053115E-019  1.396374429639E-018  1.396374429639E-018  0.000000000000E+000  7.442267977904E-020
   -2.499995350421E-006 -1.515306280202E-005  0.000000000000E+000  0.000000000000E+000 -1.808753363179E-022 -2.840072093401E-002  8.931135539579E-022  2.986445509725E-021  0.000000000000E+000  0.000000000000E+000  0.000000000000E+000  0.000000000000E+000  0.000000000000E+000  2.840072093401E-002  0.000000000000E+000  0.000000000000E+000  0.000000000000E+000  0.000000000000E+000 -2.325086685570E-020 -2.325086685570E-020  0.000000000000E+000 -6.859242778675E-021  2.577884279332E-019  2.577884279332E-019  0.000000000000E+000  6.945725721918E-020 -5.158724903449E-019 -5.158724903449E-019  0.000000000000E+000 -2.744651829474E-020
   -5.286485943672E-005 -3.433914264051E-004  0.000000000000E+000  0.000000000000E+000  1.494302974226E-021  3.309662273987E-021 -3.846401513958E-002 -1.834775239161E-020  0.000000000000E+000  0.000000000000E+000  0.000000000000E+000  0.000000000000E+000  0.000000000000E+000  0.000000000000E+000  3.846401513958E-002  0.000000000000E+000  0.000000000000E+000  0.000000000000E+000  1.983727062993E-019  1.983727062993E-019  0.000000000000E+000  5.772784958841E-020 -1.505491147585E-018 -1.505491147585E-018  0.000000000000E+000 -4.165264505399E-019  5.047258090714E-018  5.047258090714E-018  0.000000000000E+000  2.691501096948E-019
   -1.336230341901E-005 -1.201314913374E-004  0.000000000000E+000  0.000000000000E+000 -1.890975692055E-023 -3.342450662148E-023  2.214077813528E-021 -3.846401513958E-002  0.000000000000E+000  0.000000000000E+000  0.000000000000E+000  0.000000000000E+000  0.000000000000E+000  0.000000000000E+000  0.000000000000E+000  3.846401513958E-002  0.000000000000E+000  0.000000000000E+000 -7.392717078455E-021 -7.392717078455E-021  0.000000000000E+000 -1.525006866195E-021  6.498757083085E-019  6.498757083085E-019  0.000000000000E+000  1.731452750873E-019 -1.048568956477E-018 -1.048568956477E-018  0.000000000000E+000 -5.603551424307E-020
    8.338539592613E-003  4.789533311504E-002  0.000000000000E+000  0.000000000000E+000  1.440936652395E-019  3.229148114639E-019  3.239529008879E-019  1.043983320879E-018 -7.692307692308E-002  0.000000000000E+000  0.000000000000E+000  0.000000000000E+000  0.000000000000E+000  0.000000000000E+000  0.000000000000E+000  0.000000000000E+000  7.692307692308E-002  0.000000000000E+000  1.693645580301E-017  1.693645580301E-017  0.000000000000E+000  5.207595485144E-018  1.058035282301E-016  1.058035282301E-016  0.000000000000E+000  2.629058650891E-017  9.666590238360E-017  9.666590238360E-017  0.000000000000E+000  5.099140127716E-018
    0.000000000000E+000  0.000000000000E+000  0.000000000000E+000  0.000000000000E+000  0.000000000000E+000  0.000000000000E+000  0.000000000000E+000  0.000000000000E+000  0.000000000000E+000 -7.692307692308E-002  0.000000000000E+000  0.000000000000E+000  0.000000000000E+000  0.000000000000E+000  0.000000000000E+000  0.000000000000E+000  0.000000000000E+000  7.692307692308E-002  0.000000000000E+000  0.000000000000E+000  0.000000000000E+000  0.000000000000E+000  0.000000000000E+000  0.000000000000E+000  0.000000000000E+000  0.000000000000E+000  0.000000000000E+000  0.000000000000E+000  0.000000000000E+000  0.000000000000E+000
    5.473556409924E-021  1.671536796542E-022  0.000000000000E+000  0.000000000000E+000 -6.136888153025E-023 -1.374454509243E-022 -2.115797915585E-022 -6.892281431467E-022  0.000000000000E+000  0.000000000000E+000 -1.000000000000E-002  0.000000000000E+000  0.000000000000E+000  0.000000000000E+000  0.000000000000E+000  0.000000000000E+000  0.000000000000E+000  0.000000000000E+000 -7.261718256239E-021 -7.261718256239E-021  0.000000000000E+000 -2.225910467782E-021 -6.678498526405E-020 -6.678498526405E-020  0.000000000000E+000 -1.696174799041E-020 -4.910714282790E-020 -4.910714282790E-020  0.000000000000E+000 -2.616064145353E-021
    0.000000000000E+000  0.000000000000E+000  0.000000000000E+000  0.000000000000E+000  0.000000000000E+000  0.000000000000E+000  0.000000000000E+000  0.000000000000E+000  0.000000000000E+000  0.000000000000E+000  0.000000000000E+000 -1.000000000000E-002  0.000000000000E+000  0.000000000000E+000  0.000000000000E+000  0.000000000000E+000  0.000000000000E+000  0.000000000000E+000  0.000000000000E+000  0.000000000000E+000  0.000000000000E+000  0.000000000000E+000  0.000000000000E+000  0.000000000000E+000  0.000000000000E+000  0.000000000000E+000  0.000000000000E+000  0.000000000000E+000  0.000000000000E+000  0.000000000000E+000
   -2.156718285779E-006 -1.844669184563E-005  0.000000000000E+000  0.000000000000E+000  8.878935219060E-023  1.966168164658E-022 -5.819911809853E-022 -1.946495630282E-021  0.000000000000E+000  0.000000000000E+000  0.000000000000E+000  0.000000000000E+000 -1.000000000000E-002  0.000000000000E+000  0.000000000000E+000  0.000000000000E+000  0.000000000000E+000  0.000000000000E+000  1.179079069698E-020  1.179079069698E-020  0.000000000000E+000  3.428240585902E-021 -1.678876718065E-019 -1.678876718065E-019  0.000000000000E+000 -4.526495548229E-020  3.277791041251E-019  3.277791041251E-019  0.000000000000E+000  1.746966915663E-020
   -5.868384717486E-007 -3.556966702179E-006  0.000000000000E+000  0.000000000000E+000 -4.245792134130E-023 -9.433372119969E-023  2.096457471468E-022  7.010257513448E-022  0.000000000000E+000  0.000000000000E+000  0.000000000000E+000  0.000000000000E+000  0.000000000000E+000 -1.000000000000E-002  0.000000000000E+000  0.000000000000E+000  0.000000000000E+000  0.000000000000E+000 -5.457811419581E-021 -5.457811419581E-021  0.000000000000E+000 -1.610110014370E-021  6.051217937559E-020  6.051217937559E-020  0.000000000000E+000  1.630410659423E-020 -1.210937547544E-019 -1.210937547544E-019  0.000000000000E+000 -6.442681122663E-021
   -9.162652285931E-006 -5.951734803885E-005  0.000000000000E+000  0.000000000000E+000  2.589958378506E-022  5.736378555344E-022 -9.409129802538E-022 -3.180072304816E-021  0.000000000000E+000  0.000000000000E+000  0.000000000000E+000  0.000000000000E+000  0.000000000000E+000  0.000000000000E+000 -1.000000000000E-002  0.000000000000E+000  0.000000000000E+000  0.000000000000E+000  3.438238841844E-020  3.438238841844E-020  0.000000000000E+000  1.000551630382E-020 -2.609349963634E-019 -2.609349963634E-019  0.000000000000E+000 -7.219326930697E-020  8.748017373985E-019  8.748017373985E-019  0.000000000000E+000  4.664968173812E-020
   -2.315983458049E-006 -2.082145106302E-005  0.000000000000E+000  0.000000000000E+000 -3.277480150721E-024 -5.793208102028E-024  3.837487767019E-022  1.277214144032E-021  0.000000000000E+000  0.000000000000E+000  0.000000000000E+000  0.000000000000E+000  0.000000000000E+000  0.000000000000E+000  0.000000000000E+000 -1.000000000000E-002  0.000000000000E+000  0.000000000000E+000 -1.281321784639E-021 -1.281321784639E-021  0.000000000000E+000 -2.643175031105E-022  1.126378696123E-019  1.126378696123E-019  0.000000000000E+000  3.000991523444E-020 -1.817402495418E-019 -1.817402495418E-019  0.000000000000E+000 -9.712197065183E-021
    7.226734313598E-004  4.150928869970E-003  0.000000000000E+000  0.000000000000E+000  1.248811765409E-020  2.798595032688E-020  2.807591807695E-020  9.047855447615E-020  0.000000000000E+000  0.000000000000E+000  0.000000000000E+000  0.000000000000E+000  0.000000000000E+000  0.000000000000E+000  0.000000000000E+000  0.000000000000E+000 -1.000000000000E-002  0.000000000000E+000  1.467826169595E-018  1.467826169595E-018  0.000000000000E+000  4.513249420458E-019  9.169639113276E-018  9.169639113276E-018  0.000000000000E+000  2.278517497438E-018  8.377711539911E-018  8.377711539911E-018  0.000000000000E+000  4.419254777354E-019