
Linearized model: Predictions were generated on 11-Mar-2026 at 17:04:02 using OpenFAST, compiled on Mar 11 2026 at 16:48:05 as a 64-bit application using double precision at commit -128-NOTFOUND
 linked with  NWTC Subroutine Library; ElastoDyn; InflowWind; AeroDyn

Description from the FAST input file: One blade, 4 aero-stations, Linearization with continuous-state aerodynamic modules

Simulation information:
   Simulation time:                     1.1000 s
   Rotor Speed:                         1.2671 rad/s
   Azimuth:                             1.3938 rad
   Wind Speed:                         13.0000 m/s
   Number of continuous states:        30
   Number of discrete states:           0
   Number of constraint states:         0
   Number of inputs:                   15
   Number of outputs:                  31
   Jacobians included in this file?    No

Order of continuous states:
   Row/Column Operating Point                                                   Rotating Frame? Derivative Order Description
   ---------- ---------------                                                   --------------- ---------------- -----------
          1    6.234503946615E+000                                                     T               2         ED 1st flapwise bending-mode DOF of blade 1 (internal DOF index = DOF_BF(1,1)), m
          2   -1.002174554580E+001                                                     T               2         ED First time derivative of 1st flapwise bending-mode DOF of blade 1 (internal DOF index = DOF_BF(1,1)), m/s
          3   -1.303013002991E+001                                                     T               2         AD vind (axial) at blade 1, node 1, m/s
          4    0.000000000000E+000                                                     T               2         AD vind (tangential) at blade 1, node 1, m/s
          5   -8.932148105595E-001                                                     T               2         AD vind (axial) at blade 1, node 2, m/s
          6    3.691072506139E-001                                                     T               2         AD vind (tangential) at blade 1, node 2, m/s
          7   -1.265415687815E+000                                                     T               2         AD vind (axial) at blade 1, node 3, m/s
          8    2.846763001698E-001                                                     T               2         AD vind (tangential) at blade 1, node 3, m/s
          9   -1.410946971776E+001                                                     T               2         AD vind (axial) at blade 1, node 4, m/s
         10    0.000000000000E+000                                                     T               2         AD vind (tangential) at blade 1, node 4, m/s
         11   -5.212116040265E+000                                                     T               2         AD First time derivative of vind (axial) at blade 1, node 1, m/s/s
         12    0.000000000000E+000                                                     T               2         AD First time derivative of vind (tangential) at blade 1, node 1, m/s/s
         13   -3.570815800216E-001                                                     T               2         AD First time derivative of vind (axial) at blade 1, node 2, m/s/s
         14    1.476643309850E-001                                                     T               2         AD First time derivative of vind (tangential) at blade 1, node 2, m/s/s
         15   -5.061846048715E-001                                                     T               2         AD First time derivative of vind (axial) at blade 1, node 3, m/s/s
         16    1.142649710882E-001                                                     T               2         AD First time derivative of vind (tangential) at blade 1, node 3, m/s/s
         17   -5.749086368424E+000                                                     T               2         AD First time derivative of vind (axial) at blade 1, node 4, m/s/s
         18    0.000000000000E+000                                                     T               2         AD First time derivative of vind (tangential) at blade 1, node 4, m/s/s
         19    6.457943533100E-002                                                     T               1         AD x1 blade 1, node 2, rad
         20    1.590616809326E-001                                                     T               1         AD x2 blade 1, node 2, rad
         21    2.274262946448E+000                                                     T               1         AD x3 blade 1, node 2, -
         22    3.775040869111E-001                                                     T               1         AD x4 blade 1, node 2, -
         23    5.501167850073E-002                                                     T               1         AD x1 blade 1, node 3, rad
         24    1.487234217585E-001                                                     T               1         AD x2 blade 1, node 3, rad
         25    2.116042801346E+000                                                     T               1         AD x3 blade 1, node 3, -
         26    4.531298973194E-001                                                     T               1         AD x4 blade 1, node 3, -
         27   -9.578065567533E-004                                                     T               1         AD x1 blade 1, node 4, rad
         28   -2.017213812454E-003                                                     T               1         AD x2 blade 1, node 4, rad
         29    5.780555272493E-001                                                     T               1         AD x3 blade 1, node 4, -
         30    5.197355234801E-001                                                     T               1         AD x4 blade 1, node 4, -

Order of continuous state derivatives:
   Row/Column Operating Point                                                   Rotating Frame? Derivative Order Description
   ---------- ---------------                                                   --------------- ---------------- -----------
          1   -1.002174554580E+001                                                     T               2         First time derivative of ED 1st flapwise bending-mode DOF of blade 1 (internal DOF index = DOF_BF(1,1)), m/s
          2   -6.170257193632E+000                                                     T               2         First time derivative of ED First time derivative of 1st flapwise bending-mode DOF of blade 1 (internal DOF index = DOF_BF(1,1)), m/s/s
          3    1.160448901599E-003                                                     T               2         First time derivative of AD vind (axial) at blade 1, node 1, m/s/s
          4    0.000000000000E+000                                                     T               2         First time derivative of AD vind (tangential) at blade 1, node 1, m/s/s
          5   -6.144581563681E-004                                                     T               2         First time derivative of AD vind (axial) at blade 1, node 2, m/s/s
          6    1.570319492076E-004                                                     T               2         First time derivative of AD vind (tangential) at blade 1, node 2, m/s/s
          7    1.723005036305E-003                                                     T               2         First time derivative of AD vind (axial) at blade 1, node 3, m/s/s
          8    1.075589223108E-003                                                     T               2         First time derivative of AD vind (tangential) at blade 1, node 3, m/s/s
          9   -4.138828558748E-001                                                     T               2         First time derivative of AD vind (axial) at blade 1, node 4, m/s/s
         10    0.000000000000E+000                                                     T               2         First time derivative of AD vind (tangential) at blade 1, node 4, m/s/s
         11    3.026698257929E-004                                                     T               2         First time derivative of AD First time derivative of vind (axial) at blade 1, node 1, m/s/s/s
         12    0.000000000000E+000                                                     T               2         First time derivative of AD First time derivative of vind (tangential) at blade 1, node 1, m/s/s/s
         13   -1.476410791307E-004                                                     T               2         First time derivative of AD First time derivative of vind (axial) at blade 1, node 2, m/s/s/s
         14    3.650384520023E-005                                                     T               2         First time derivative of AD First time derivative of vind (tangential) at blade 1, node 2, m/s/s/s
         15    2.989404718612E-004                                                     T               2         First time derivative of AD First time derivative of vind (axial) at blade 1, node 3, m/s/s/s
         16    1.798492771851E-004                                                     T               2         First time derivative of AD First time derivative of vind (tangential) at blade 1, node 3, m/s/s/s
         17   -3.411487282046E-002                                                     T               2         First time derivative of AD First time derivative of vind (axial) at blade 1, node 4, m/s/s/s
         18    0.000000000000E+000                                                     T               2         First time derivative of AD First time derivative of vind (tangential) at blade 1, node 4, m/s/s/s
         19    1.077353276846E-002                                                     T               1         First time derivative of AD x1 blade 1, node 2, rad/s
         20    2.347101062131E-002                                                     T               1         First time derivative of AD x2 blade 1, node 2, rad/s
         21    3.887355553507E-001                                                     T               1         First time derivative of AD x3 blade 1, node 2, -/s
         22   -1.359405127634E-001                                                     T               1         First time derivative of AD x4 blade 1, node 2, -/s
         23    5.566647064919E-002                                                     T               1         First time derivative of AD x1 blade 1, node 3, rad/s
         24    6.696863932792E-002                                                     T               1         First time derivative of AD x2 blade 1, node 3, rad/s
         25    1.233039364670E+000                                                     T               1         First time derivative of AD x3 blade 1, node 3, -/s
         26   -5.743825327180E-001                                                     T               1         First time derivative of AD x4 blade 1, node 3, -/s
         27    1.982170832144E-003                                                     T               1         First time derivative of AD x1 blade 1, node 4, rad/s
         28    4.631195085001E-003                                                     T               1         First time derivative of AD x2 blade 1, node 4, rad/s
         29    3.701011042695E-002                                                     T               1         First time derivative of AD x3 blade 1, node 4, -/s
         30    1.450542612136E-002                                                     T               1         First time derivative of AD x4 blade 1, node 4, -/s

Order of inputs:
     Column   Operating Point                                                   Rotating Frame? Derivative Order Description
   ---------- ---------------                                                   --------------- ---------------- -----------
          1    1.300000000000E+001                                                     F               0         IfW Extended input: horizontal wind speed (steady/uniform wind) (hub), m/s
          2    2.000000000000E-001                                                     F               0         IfW Extended input: vertical power-law shear exponent (hub), -
          3    0.000000000000E+000                                                     F               0         IfW Extended input: propagation direction (hub), rad
          4    0.000000000000E+000                                                     T               0         ED Blade 1 pitch command, rad
          5    0.000000000000E+000                                                     T               0         ED Blade 1 pitch moment, Nm
          6    0.000000000000E+000                                                     F               0         ED Yaw moment, Nm
          7    0.000000000000E+000                                                     F               0         ED Generator torque, Nm
          8    0.000000000000E+000                                                     F               0         ED Extended input: collective blade-pitch command, rad
          9    0.000000000000E+000                                                     T               0         AD User property on blade 1, node 1, -
         10    0.000000000000E+000                                                     T               0         AD User property on blade 1, node 2, -
         11    0.000000000000E+000                                                     T               0         AD User property on blade 1, node 3, -
         12    0.000000000000E+000                                                     T               0         AD User property on blade 1, node 4, -
         13    1.300000000000E+001                                                     F               0         AD Extended input: horizontal wind speed (steady/uniform wind), m/s
         14    2.000000000000E-001                                                     F               0         AD Extended input: vertical power-law shear exponent, -
         15    0.000000000000E+000                                                     F               0         AD Extended input: propagation direction, rad

Order of outputs:
        Row   Operating Point                                                   Rotating Frame? Derivative Order Description
   ---------- ---------------                                                   --------------- ---------------- -----------
          1    1.300000000000E+001                                                     F               0         IfW Wind1VelX, (m/s)
          2   -0.000000000000E+000                                                     F               0         IfW Wind1VelY, (m/s)
          3    0.000000000000E+000                                                     F               0         IfW Wind1VelZ, (m/s)
          4    3.199297234392E+002                                                     F               0         ED TwrBsFxt, (kN)
          5    3.172978919266E+004                                                     F               0         ED TwrBsMyt, (kN-m)
          6    6.234503946615E+000                                                     F               0         ED Q_B1F1, (m)
          7    8.783054359581E-002                                                     F               0         AD RtAeroCp, (-)
          8    1.385422439995E-001                                                     F               0         AD RtAeroCt, (-)
          9    1.511536347328E+000                                                     T               0         AD B1N1Cl, (-)
         10    7.502600466076E-002                                                     T               0         AD B1N1AxInd, (-)
         11    5.011218182384E-003                                                     T               0         AD B1N1TnInd, (-)
         12    0.000000000000E+000                                                     T               0         AD AB1N001UA_Flag, (-)
         13    1.000000000000E+000                                                     T               0         AD AB1N002UA_Flag, (-)
         14    1.000000000000E+000                                                     T               0         AD AB1N003UA_Flag, (-)
         15    1.000000000000E+000                                                     T               0         AD AB1N004UA_Flag, (-)
         16    0.000000000000E+000                                                     T               0         AD AB1N001UA_x1, (rad)
         17    6.457943533100E-002                                                     T               0         AD AB1N002UA_x1, (rad)
         18    5.501167850073E-002                                                     T               0         AD AB1N003UA_x1, (rad)
         19   -9.578065567533E-004                                                     T               0         AD AB1N004UA_x1, (rad)
         20    0.000000000000E+000                                                     T               0         AD AB1N001UA_x2, (rad)
         21    1.590616809326E-001                                                     T               0         AD AB1N002UA_x2, (rad)
         22    1.487234217585E-001                                                     T               0         AD AB1N003UA_x2, (rad)
         23   -2.017213812454E-003                                                     T               0         AD AB1N004UA_x2, (rad)
         24    0.000000000000E+000                                                     T               0         AD AB1N001UA_x3, (-)
         25    2.274262946448E+000                                                     T               0         AD AB1N002UA_x3, (-)
         26    2.116042801346E+000                                                     T               0         AD AB1N003UA_x3, (-)
         27    5.780555272493E-001                                                     T               0         AD AB1N004UA_x3, (-)
         28    0.000000000000E+000                                                     T               0         AD AB1N001UA_x4, (-)
         29    3.775040869111E-001                                                     T               0         AD AB1N002UA_x4, (-)
         30    4.531298973194E-001                                                     T               0         AD AB1N003UA_x4, (-)
         31    5.197355234801E-001                                                     T               0         AD AB1N004UA_x4, (-)


Linearized state matrices:

A: 30 x 30
    0.000000000000E+000  1.000000000000E+000  0.000000000000E+000  0.000000000000E+000  0.000000000000E+000  0.000000000000E+000  0.000000000000E+000  0.000000000000E+000  0.000000000000E+000  0.000000000000E+000  0.000000000000E+000  0.000000000000E+000  0.000000000000E+000  0.000000000000E+000  0.000000000000E+000  0.000000000000E+000  0.000000000000E+000  0.000000000000E+000  0.000000000000E+000  0.000000000000E+000  0.000000000000E+000  0.000000000000E+000  0.000000000000E+000  0.000000000000E+000  0.000000000000E+000  0.000000000000E+000  0.000000000000E+000  0.000000000000E+000  0.000000000000E+000  0.000000000000E+000
   -1.600579116869E+001 -4.951244549980E-002  0.000000000000E+000  0.000000000000E+000  1.862898176475E-001  4.171331660317E-001  6.221705908072E-001  2.022363248116E+000  0.000000000000E+000  0.000000000000E+000  0.000000000000E+000  0.000000000000E+000  0.000000000000E+000  0.000000000000E+000  0.000000000000E+000  0.000000000000E+000  0.000000000000E+000  0.000000000000E+000  2.217192364638E+001  2.217192364638E+001  0.000000000000E+000  6.752096391907E+000  1.989857987619E+002  1.989857987619E+002  0.000000000000E+000  4.979460299650E+001  1.769455081646E+002  1.769455081646E+002  0.000000000000E+000  9.380285583658E+000
    4.683786581836E-020  1.413946379983E-021 -2.565071974878E-002  0.000000000000E+000  3.513032615731E-023  8.031804142712E-023 -2.435858762165E-022 -7.988134249058E-022  0.000000000000E+000  0.000000000000E+000  2.565071974878E-002  0.000000000000E+000  0.000000000000E+000  0.000000000000E+000  0.000000000000E+000  0.000000000000E+000  0.000000000000E+000  0.000000000000E+000  3.228677136466E-021  3.228677136466E-021  0.000000000000E+000  1.119416602089E-021 -7.574674079947E-020 -7.574674079947E-020  0.000000000000E+000 -1.930691057616E-020 -1.205931650451E-019 -1.205931650451E-019  0.000000000000E+000 -6.527711045780E-021
    0.000000000000E+000  0.000000000000E+000  0.000000000000E+000 -2.565071974878E-002  0.000000000000E+000  0.000000000000E+000  0.000000000000E+000  0.000000000000E+000  0.000000000000E+000  0.000000000000E+000  0.000000000000E+000  2.565071974878E-002  0.000000000000E+000  0.000000000000E+000  0.000000000000E+000  0.000000000000E+000  0.000000000000E+000  0.000000000000E+000  0.000000000000E+000  0.000000000000E+000  0.000000000000E+000  0.000000000000E+000  0.000000000000E+000  0.000000000000E+000  0.000000000000E+000  0.000000000000E+000  0.000000000000E+000  0.000000000000E+000  0.000000000000E+000  0.000000000000E+000
   -9.822227769711E-006 -7.857939017373E-005  0.000000000000E+000  0.000000000000E+000 -2.840072093401E-002  3.900604334454E-022 -2.528555009032E-021 -8.157564113952E-021  0.000000000000E+000  0.000000000000E+000  0.000000000000E+000  0.000000000000E+000  2.840072093401E-002  0.000000000000E+000  0.000000000000E+000  0.000000000000E+000  0.000000000000E+000  0.000000000000E+000  2.003792244363E-020  2.003792244363E-020  0.000000000000E+000  6.156913337319E-021 -8.280577505661E-019 -8.280577505661E-019  0.000000000000E+000 -2.042826459373E-019 -4.629856291070E-018 -4.629856291070E-018  0.000000000000E+000 -2.500808461048E-019
   -2.660669304791E-006 -1.515485640242E-005  0.000000000000E+000  0.000000000000E+000 -2.135230907298E-022 -2.840072093401E-002  4.547265918977E-022  1.456471489479E-021  0.000000000000E+000  0.000000000000E+000  0.000000000000E+000  0.000000000000E+000  0.000000000000E+000  2.840072093401E-002  0.000000000000E+000  0.000000000000E+000  0.000000000000E+000  0.000000000000E+000 -2.507419342802E-020 -2.507419342802E-020  0.000000000000E+000 -7.670892485556E-021  1.522022163689E-019  1.522022163689E-019  0.000000000000E+000  3.704640234023E-020  1.542913856649E-018  1.542913856649E-018  0.000000000000E+000  8.344108987840E-020
   -5.775336309764E-005 -3.433287130719E-004  0.000000000000E+000  0.000000000000E+000  5.354235310161E-021  1.200046380710E-020 -3.846401513958E-002  2.140016128060E-020  0.000000000000E+000  0.000000000000E+000  0.000000000000E+000  0.000000000000E+000  0.000000000000E+000  0.000000000000E+000  3.846401513958E-002  0.000000000000E+000  0.000000000000E+000  0.000000000000E+000  6.296214568982E-019  6.296214568982E-019  0.000000000000E+000  1.926744146408E-019  2.031205125556E-018  2.031205125556E-018  0.000000000000E+000  5.172941055053E-019 -1.148604341512E-017 -1.148604341512E-017  0.000000000000E+000 -6.247222140283E-019
   -1.536463074941E-005 -1.201741918417E-004  0.000000000000E+000  0.000000000000E+000 -1.344643465774E-021 -3.012765072806E-021 -1.875366093505E-021 -3.846401513958E-002  0.000000000000E+000  0.000000000000E+000  0.000000000000E+000  0.000000000000E+000  0.000000000000E+000  0.000000000000E+000  0.000000000000E+000  3.846401513958E-002  0.000000000000E+000  0.000000000000E+000 -1.586752948018E-019 -1.586752948018E-019  0.000000000000E+000 -4.847497393398E-020 -5.830720491406E-019 -5.830720491406E-019  0.000000000000E+000 -1.485064912992E-019  2.740568250556E-018  2.740568250556E-018  0.000000000000E+000  1.490737930501E-019
    9.676439092174E-003  4.786087061476E-002  0.000000000000E+000  0.000000000000E+000  4.316860040163E-020  9.671763160229E-020  2.268860599977E-019  7.431660212201E-019 -7.692307692307E-002  0.000000000000E+000  0.000000000000E+000  0.000000000000E+000  0.000000000000E+000  0.000000000000E+000  0.000000000000E+000  0.000000000000E+000  7.692307692308E-002  0.000000000000E+000  5.089099757516E-018  5.089099757516E-018  0.000000000000E+000  1.554271865212E-018  7.078141917473E-017  7.078141917473E-017  0.000000000000E+000  1.798413369931E-017 -1.125414802529E-016 -1.125414802529E-016  0.000000000000E+000 -6.168673838601E-018
    0.000000000000E+000  0.000000000000E+000  0.000000000000E+000  0.000000000000E+000  0.000000000000E+000  0.000000000000E+000  0.000000000000E+000  0.000000000000E+000  0.000000000000E+000 -7.692307692308E-002  0.000000000000E+000  0.000000000000E+000  0.000000000000E+000  0.000000000000E+000  0.000000000000E+000  0.000000000000E+000  0.000000000000E+000  7.692307692308E-002  0.000000000000E+000  0.000000000000E+000  0.000000000000E+000  0.000000000000E+000  0.000000000000E+000  0.000000000000E+000  0.000000000000E+000  0.000000000000E+000  0.000000000000E+000  0.000000000000E+000  0.000000000000E+000  0.000000000000E+000
    1.217324277241E-020  3.674871228645E-022  0.000000000000E+000  0.000000000000E+000  9.130432856312E-024  2.087479863173E-023 -6.330839279941E-023 -2.076129981873E-022  0.000000000000E+000  0.000000000000E+000 -1.000000000000E-002  0.000000000000E+000  0.000000000000E+000  0.000000000000E+000  0.000000000000E+000  0.000000000000E+000  0.000000000000E+000  0.000000000000E+000  8.391388021055E-022  8.391388021055E-022  0.000000000000E+000  2.909383214334E-022 -1.968670964956E-020 -1.968670964956E-020  0.000000000000E+000 -5.017899631472E-021 -3.134237329435E-020 -3.134237329435E-020  0.000000000000E+000 -1.696563451816E-021
    0.000000000000E+000  0.000000000000E+000  0.000000000000E+000  0.000000000000E+000  0.000000000000E+000  0.000000000000E+000  0.000000000000E+000  0.000000000000E+000  0.000000000000E+000  0.000000000000E+000  0.000000000000E+000 -1.000000000000E-002  0.000000000000E+000  0.000000000000E+000  0.000000000000E+000  0.000000000000E+000  0.000000000000E+000  0.000000000000E+000  0.000000000000E+000  0.000000000000E+000  0.000000000000E+000  0.000000000000E+000  0.000000000000E+000  0.000000000000E+000  0.000000000000E+000  0.000000000000E+000  0.000000000000E+000  0.000000000000E+000  0.000000000000E+000  0.000000000000E+000
   -2.305628741499E-006 -1.844539800153E-005  0.000000000000E+000  0.000000000000E+000  4.081816109822E-023  9.156115774942E-023 -5.935424467820E-022 -1.914872544470E-021  0.000000000000E+000  0.000000000000E+000  0.000000000000E+000  0.000000000000E+000 -1.000000000000E-002  0.000000000000E+000  0.000000000000E+000  0.000000000000E+000  0.000000000000E+000  0.000000000000E+000  4.703618261473E-021  4.703618261473E-021  0.000000000000E+000  1.445248133342E-021 -1.943748194491E-019 -1.943748194491E-019  0.000000000000E+000 -4.795245548213E-020 -1.086793137359E-018 -1.086793137359E-018  0.000000000000E+000 -5.870293379427E-020
   -6.245544050268E-007 -3.557387724449E-006  0.000000000000E+000  0.000000000000E+000 -5.012151891634E-023 -1.123322409381E-022  1.067406218207E-022  3.418860370629E-022  0.000000000000E+000  0.000000000000E+000  0.000000000000E+000  0.000000000000E+000  0.000000000000E+000 -1.000000000000E-002  0.000000000000E+000  0.000000000000E+000  0.000000000000E+000  0.000000000000E+000 -5.885811487269E-021 -5.885811487269E-021  0.000000000000E+000 -1.800633278143E-021  3.572731286706E-020  3.572731286706E-020  0.000000000000E+000  8.696117826563E-021  3.621771574587E-019  3.621771574587E-019  0.000000000000E+000  1.958661309391E-020
   -1.000993836067E-005 -5.950647842770E-005  0.000000000000E+000  0.000000000000E+000  9.280076959778E-022  2.079946457929E-021  1.131357336217E-021  3.709122444781E-021  0.000000000000E+000  0.000000000000E+000  0.000000000000E+000  0.000000000000E+000  0.000000000000E+000  0.000000000000E+000 -1.000000000000E-002  0.000000000000E+000  0.000000000000E+000  0.000000000000E+000  1.091273587557E-019  1.091273587557E-019  0.000000000000E+000  3.339474812870E-020  3.520528851334E-019  3.520528851334E-019  0.000000000000E+000  8.965853818226E-020 -1.990785998018E-018 -1.990785998018E-018  0.000000000000E+000 -1.082782113379E-019
   -2.663031180989E-006 -2.082885200718E-005  0.000000000000E+000  0.000000000000E+000 -2.330565267120E-022 -5.221789876197E-022 -3.250425255397E-022 -1.065835622053E-021  0.000000000000E+000  0.000000000000E+000  0.000000000000E+000  0.000000000000E+000  0.000000000000E+000  0.000000000000E+000  0.000000000000E+000 -1.000000000000E-002  0.000000000000E+000  0.000000000000E+000 -2.750194681547E-020 -2.750194681547E-020  0.000000000000E+000 -8.401787793616E-021 -1.010593142750E-019 -1.010593142750E-019  0.000000000000E+000 -2.573946770079E-020  4.750012430425E-019  4.750012430425E-019  0.000000000000E+000  2.583779367272E-020
    8.386247213218E-004  4.147942119946E-003  0.000000000000E+000  0.000000000000E+000  3.741278701475E-021  8.382194738865E-021  1.966345853314E-020  6.440772183908E-020  0.000000000000E+000  0.000000000000E+000  0.000000000000E+000  0.000000000000E+000  0.000000000000E+000  0.000000000000E+000  0.000000000000E+000  0.000000000000E+000 -1.000000000000E-002  0.000000000000E+000  4.410553123181E-019  4.410553123181E-019  0.000000000000E+000  1.347035616517E-019  6.134389661810E-018  6.134389661810E-018  0.000000000000E+000  1.558624920607E-018 -9.753594955250E-018 -9.753594955250E-018  0.000000000000E+000 -5.346183993454E-019