
Linearized model: Predictions were generated on 13-Sep-2024 at 18:19:15 using OpenFAST, compiled on Sep 13 2024 at 17:02:28 as a 64-bit application using double precision at commit HEAD-HASH-NOTFOUND
 linked with  NWTC Subroutine Library; ElastoDyn; InflowWind; AeroDyn

Description from the FAST input file: One blade, 4 aero-stations, Linearization with continuous-state aerodynamic modules

Simulation information:
   Simulation time:                     1.1000 s
   Rotor Speed:                         1.2671 rad/s
   Azimuth:                             1.3938 rad
   Wind Speed:                         13.0000 m/s
   Number of continuous states:        28
   Number of discrete states:           0
   Number of constraint states:         0
   Number of inputs:                    7
   Number of outputs:                  25
   Jacobians included in this file?    No

Order of continuous states:
   Row/Column Operating Point                                                   Rotating Frame? Derivative Order Description
   ---------- ---------------                                                   --------------- ---------------- -----------
          1   -1.303013002991E+001                                                     T               2         vind (axial) at blade 1, node 1, m/s
          2    0.000000000000E+000                                                     T               2         vind (tangential) at blade 1, node 1, m/s
          3   -8.932151726946E-001                                                     T               2         vind (axial) at blade 1, node 2, m/s
          4    3.691072118892E-001                                                     T               2         vind (tangential) at blade 1, node 2, m/s
          5   -1.265421493514E+000                                                     T               2         vind (axial) at blade 1, node 3, m/s
          6    2.846798286406E-001                                                     T               2         vind (tangential) at blade 1, node 3, m/s
          7   -1.411109167001E+001                                                     T               2         vind (axial) at blade 1, node 4, m/s
          8    0.000000000000E+000                                                     T               2         vind (tangential) at blade 1, node 4, m/s
          9   -5.212116040265E+000                                                     T               2         First time derivative of vind (axial) at blade 1, node 1, m/s/s
         10    0.000000000000E+000                                                     T               2         First time derivative of vind (tangential) at blade 1, node 1, m/s/s
         11   -3.570816651725E-001                                                     T               2         First time derivative of vind (axial) at blade 1, node 2, m/s/s
         12    1.476643219155E-001                                                     T               2         First time derivative of vind (tangential) at blade 1, node 2, m/s/s
         13   -5.061856216268E-001                                                     T               2         First time derivative of vind (axial) at blade 1, node 3, m/s/s
         14    1.142655880963E-001                                                     T               2         First time derivative of vind (tangential) at blade 1, node 3, m/s/s
         15   -5.749229755707E+000                                                     T               2         First time derivative of vind (axial) at blade 1, node 4, m/s/s
         16    0.000000000000E+000                                                     T               2         First time derivative of vind (tangential) at blade 1, node 4, m/s/s
         17    6.457027078395E-002                                                     T               1         x1 blade 1, node 2, rad
         18    1.590302895744E-001                                                     T               1         x2 blade 1, node 2, rad
         19    2.273912780619E+000                                                     T               1         x3 blade 1, node 2, -
         20    3.775991160346E-001                                                     T               1         x4 blade 1, node 2, -
         21    5.502534195065E-002                                                     T               1         x1 blade 1, node 3, rad
         22    1.487209894544E-001                                                     T               1         x2 blade 1, node 3, rad
         23    2.116023400009E+000                                                     T               1         x3 blade 1, node 3, -
         24    4.530786304963E-001                                                     T               1         x4 blade 1, node 3, -
         25   -9.112852665224E-004                                                     T               1         x1 blade 1, node 4, rad
         26   -1.940542833558E-003                                                     T               1         x2 blade 1, node 4, rad
         27    5.788735167351E-001                                                     T               1         x3 blade 1, node 4, -
         28    5.201152523924E-001                                                     T               1         x4 blade 1, node 4, -

Order of continuous state derivatives:
   Row/Column Operating Point                                                   Rotating Frame? Derivative Order Description
   ---------- ---------------                                                   --------------- ---------------- -----------
          1    1.160448901599E-003                                                     T               2         First time derivative of vind (axial) at blade 1, node 1, m/s/s
          2    0.000000000000E+000                                                     T               2         First time derivative of vind (tangential) at blade 1, node 1, m/s/s
          3   -6.153017135686E-004                                                     T               2         First time derivative of vind (axial) at blade 1, node 2, m/s/s
          4    1.569095377754E-004                                                     T               2         First time derivative of vind (tangential) at blade 1, node 2, m/s/s
          5    1.722779194102E-003                                                     T               2         First time derivative of vind (axial) at blade 1, node 3, m/s/s
          6    1.076022222185E-003                                                     T               2         First time derivative of vind (tangential) at blade 1, node 3, m/s/s
          7   -4.148515628133E-001                                                     T               2         First time derivative of vind (axial) at blade 1, node 4, m/s/s
          8    0.000000000000E+000                                                     T               2         First time derivative of vind (tangential) at blade 1, node 4, m/s/s
          9    3.026698257929E-004                                                     T               2         First time derivative of First time derivative of vind (axial) at blade 1, node 1, m/s/s/s
         10    0.000000000000E+000                                                     T               2         First time derivative of First time derivative of vind (tangential) at blade 1, node 1, m/s/s/s
         11   -1.478400872795E-004                                                     T               2         First time derivative of First time derivative of vind (axial) at blade 1, node 2, m/s/s/s
         12    3.647500384420E-005                                                     T               2         First time derivative of First time derivative of vind (tangential) at blade 1, node 2, m/s/s/s
         13    2.988795696635E-004                                                     T               2         First time derivative of First time derivative of vind (axial) at blade 1, node 3, m/s/s/s
         14    1.799375651945E-004                                                     T               2         First time derivative of First time derivative of vind (tangential) at blade 1, node 3, m/s/s/s
         15   -3.420725064874E-002                                                     T               2         First time derivative of First time derivative of vind (axial) at blade 1, node 4, m/s/s/s
         16    0.000000000000E+000                                                     T               2         First time derivative of First time derivative of vind (tangential) at blade 1, node 4, m/s/s/s
         17    1.077379045928E-002                                                     T               1         First time derivative of x1 blade 1, node 2, rad/s
         18    2.355936276069E-002                                                     T               1         First time derivative of x2 blade 1, node 2, rad/s
         19    3.888970068337E-001                                                     T               1         First time derivative of x3 blade 1, node 2, -/s
         20   -1.358353970369E-001                                                     T               1         First time derivative of x4 blade 1, node 2, -/s
         21    5.557402047715E-002                                                     T               1         First time derivative of x1 blade 1, node 3, rad/s
         22    6.688357642027E-002                                                     T               1         First time derivative of x2 blade 1, node 3, rad/s
         23    1.231372374057E+000                                                     T               1         First time derivative of x3 blade 1, node 3, -/s
         24   -5.735885906549E-001                                                     T               1         First time derivative of x4 blade 1, node 3, -/s
         25    1.702065308523E-003                                                     T               1         First time derivative of x1 blade 1, node 4, rad/s
         26    4.042922985939E-003                                                     T               1         First time derivative of x2 blade 1, node 4, rad/s
         27    3.108360419643E-002                                                     T               1         First time derivative of x3 blade 1, node 4, -/s
         28    1.205527229847E-002                                                     T               1         First time derivative of x4 blade 1, node 4, -/s

Order of inputs:
     Column   Operating Point                                                   Rotating Frame? Derivative Order Description
   ---------- ---------------                                                   --------------- ---------------- -----------
          1    0.000000000000E+000                                                     T               0         User property on blade 1, node 1, -
          2    0.000000000000E+000                                                     T               0         User property on blade 1, node 2, -
          3    0.000000000000E+000                                                     T               0         User property on blade 1, node 3, -
          4    0.000000000000E+000                                                     T               0         User property on blade 1, node 4, -
          5    1.300000000000E+001                                                     F               0         Extended input: horizontal wind speed (steady/uniform wind), m/s
          6    2.000000000000E-001                                                     F               0         Extended input: vertical power-law shear exponent, -
          7    0.000000000000E+000                                                     F               0         Extended input: propagation direction, rad

Order of outputs:
        Row   Operating Point                                                   Rotating Frame? Derivative Order Description
   ---------- ---------------                                                   --------------- ---------------- -----------
          1    8.790291605247E-002                                                     F               0         RtAeroCp, (-)
          2    1.386440319181E-001                                                     F               0         RtAeroCt, (-)
          3    1.511353171743E+000                                                     T               0         B1N1Cl, (-)
          4    7.502513481158E-002                                                     T               0         B1N1AxInd, (-)
          5    5.011489224170E-003                                                     T               0         B1N1TnInd, (-)
          6    0.000000000000E+000                                                     T               0         AB1N001UA_Flag, (-)
          7    1.000000000000E+000                                                     T               0         AB1N002UA_Flag, (-)
          8    1.000000000000E+000                                                     T               0         AB1N003UA_Flag, (-)
          9    1.000000000000E+000                                                     T               0         AB1N004UA_Flag, (-)
         10    0.000000000000E+000                                                     T               0         AB1N001UA_x1, (rad)
         11    6.457027078395E-002                                                     T               0         AB1N002UA_x1, (rad)
         12    5.502534195065E-002                                                     T               0         AB1N003UA_x1, (rad)
         13   -9.112852665224E-004                                                     T               0         AB1N004UA_x1, (rad)
         14    0.000000000000E+000                                                     T               0         AB1N001UA_x2, (rad)
         15    1.590302895744E-001                                                     T               0         AB1N002UA_x2, (rad)
         16    1.487209894544E-001                                                     T               0         AB1N003UA_x2, (rad)
         17   -1.940542833558E-003                                                     T               0         AB1N004UA_x2, (rad)
         18    0.000000000000E+000                                                     T               0         AB1N001UA_x3, (-)
         19    2.273912780619E+000                                                     T               0         AB1N002UA_x3, (-)
         20    2.116023400009E+000                                                     T               0         AB1N003UA_x3, (-)
         21    5.788735167351E-001                                                     T               0         AB1N004UA_x3, (-)
         22    0.000000000000E+000                                                     T               0         AB1N001UA_x4, (-)
         23    3.775991160346E-001                                                     T               0         AB1N002UA_x4, (-)
         24    4.530786304963E-001                                                     T               0         AB1N003UA_x4, (-)
         25    5.201152523924E-001                                                     T               0         AB1N004UA_x4, (-)


Linearized state matrices:

A: 28 x 28
   -2.565071974878E-002  0.000000000000E+000  0.000000000000E+000  0.000000000000E+000  0.000000000000E+000  0.000000000000E+000  0.000000000000E+000  0.000000000000E+000  2.565071974878E-002  0.000000000000E+000  0.000000000000E+000  0.000000000000E+000  0.000000000000E+000  0.000000000000E+000  0.000000000000E+000  0.000000000000E+000  0.000000000000E+000  0.000000000000E+000  0.000000000000E+000  0.000000000000E+000  0.000000000000E+000  0.000000000000E+000  0.000000000000E+000  0.000000000000E+000  0.000000000000E+000  0.000000000000E+000  0.000000000000E+000  0.000000000000E+000
    0.000000000000E+000 -2.565071974878E-002  0.000000000000E+000  0.000000000000E+000  0.000000000000E+000  0.000000000000E+000  0.000000000000E+000  0.000000000000E+000  0.000000000000E+000  2.565071974878E-002  0.000000000000E+000  0.000000000000E+000  0.000000000000E+000  0.000000000000E+000  0.000000000000E+000  0.000000000000E+000  0.000000000000E+000  0.000000000000E+000  0.000000000000E+000  0.000000000000E+000  0.000000000000E+000  0.000000000000E+000  0.000000000000E+000  0.000000000000E+000  0.000000000000E+000  0.000000000000E+000  0.000000000000E+000  0.000000000000E+000
    0.000000000000E+000  0.000000000000E+000 -2.840072093401E-002  0.000000000000E+000  0.000000000000E+000  0.000000000000E+000  0.000000000000E+000  0.000000000000E+000  0.000000000000E+000  0.000000000000E+000  2.840072093401E-002  0.000000000000E+000  0.000000000000E+000  0.000000000000E+000  0.000000000000E+000  0.000000000000E+000  0.000000000000E+000  0.000000000000E+000  0.000000000000E+000  0.000000000000E+000  0.000000000000E+000  0.000000000000E+000  0.000000000000E+000  0.000000000000E+000  0.000000000000E+000  0.000000000000E+000  0.000000000000E+000  0.000000000000E+000
    0.000000000000E+000  0.000000000000E+000  0.000000000000E+000 -2.840072093401E-002  0.000000000000E+000  0.000000000000E+000  0.000000000000E+000  0.000000000000E+000  0.000000000000E+000  0.000000000000E+000  0.000000000000E+000  2.840072093401E-002  0.000000000000E+000  0.000000000000E+000  0.000000000000E+000  0.000000000000E+000  0.000000000000E+000  0.000000000000E+000  0.000000000000E+000  0.000000000000E+000  0.000000000000E+000  0.000000000000E+000  0.000000000000E+000  0.000000000000E+000  0.000000000000E+000  0.000000000000E+000  0.000000000000E+000  0.000000000000E+000
    0.000000000000E+000  0.000000000000E+000  0.000000000000E+000  0.000000000000E+000 -3.846401513958E-002  0.000000000000E+000  0.000000000000E+000  0.000000000000E+000  0.000000000000E+000  0.000000000000E+000  0.000000000000E+000  0.000000000000E+000  3.846401513958E-002  0.000000000000E+000  0.000000000000E+000  0.000000000000E+000  0.000000000000E+000  0.000000000000E+000  0.000000000000E+000  0.000000000000E+000  0.000000000000E+000  0.000000000000E+000  0.000000000000E+000  0.000000000000E+000  0.000000000000E+000  0.000000000000E+000  0.000000000000E+000  0.000000000000E+000
    0.000000000000E+000  0.000000000000E+000  0.000000000000E+000  0.000000000000E+000  0.000000000000E+000 -3.846401513958E-002  0.000000000000E+000  0.000000000000E+000  0.000000000000E+000  0.000000000000E+000  0.000000000000E+000  0.000000000000E+000  0.000000000000E+000  3.846401513958E-002  0.000000000000E+000  0.000000000000E+000  0.000000000000E+000  0.000000000000E+000  0.000000000000E+000  0.000000000000E+000  0.000000000000E+000  0.000000000000E+000  0.000000000000E+000  0.000000000000E+000  0.000000000000E+000  0.000000000000E+000  0.000000000000E+000  0.000000000000E+000
    0.000000000000E+000  0.000000000000E+000  0.000000000000E+000  0.000000000000E+000  0.000000000000E+000  0.000000000000E+000 -7.692307692308E-002  0.000000000000E+000  0.000000000000E+000  0.000000000000E+000  0.000000000000E+000  0.000000000000E+000  0.000000000000E+000  0.000000000000E+000  7.692307692308E-002  0.000000000000E+000  0.000000000000E+000  0.000000000000E+000  0.000000000000E+000  0.000000000000E+000  0.000000000000E+000  0.000000000000E+000  0.000000000000E+000  0.000000000000E+000  0.000000000000E+000  0.000000000000E+000  0.000000000000E+000  0.000000000000E+000
    0.000000000000E+000  0.000000000000E+000  0.000000000000E+000  0.000000000000E+000  0.000000000000E+000  0.000000000000E+000  0.000000000000E+000 -7.692307692308E-002  0.000000000000E+000  0.000000000000E+000  0.000000000000E+000  0.000000000000E+000  0.000000000000E+000  0.000000000000E+000  0.000000000000E+000  7.692307692308E-002  0.000000000000E+000  0.000000000000E+000  0.000000000000E+000  0.000000000000E+000  0.000000000000E+000  0.000000000000E+000  0.000000000000E+000  0.000000000000E+000  0.000000000000E+000  0.000000000000E+000  0.000000000000E+000  0.000000000000E+000
    0.000000000000E+000  0.000000000000E+000  0.000000000000E+000  0.000000000000E+000  0.000000000000E+000  0.000000000000E+000  0.000000000000E+000  0.000000000000E+000 -1.000000000000E-002  0.000000000000E+000  0.000000000000E+000  0.000000000000E+000  0.000000000000E+000  0.000000000000E+000  0.000000000000E+000  0.000000000000E+000  0.000000000000E+000  0.000000000000E+000  0.000000000000E+000  0.000000000000E+000  0.000000000000E+000  0.000000000000E+000  0.000000000000E+000  0.000000000000E+000  0.000000000000E+000  0.000000000000E+000  0.000000000000E+000  0.000000000000E+000
    0.000000000000E+000  0.000000000000E+000  0.000000000000E+000  0.000000000000E+000  0.000000000000E+000  0.000000000000E+000  0.000000000000E+000  0.000000000000E+000  0.000000000000E+000 -1.000000000000E-002  0.000000000000E+000  0.000000000000E+000  0.000000000000E+000  0.000000000000E+000  0.000000000000E+000  0.000000000000E+000  0.000000000000E+000  0.000000000000E+000  0.000000000000E+000  0.000000000000E+000  0.000000000000E+000  0.000000000000E+000  0.000000000000E+000  0.000000000000E+000  0.000000000000E+000  0.000000000000E+000  0.000000000000E+000  0.000000000000E+000
    0.000000000000E+000  0.000000000000E+000  0.000000000000E+000  0.000000000000E+000  0.000000000000E+000  0.000000000000E+000  0.000000000000E+000  0.000000000000E+000  0.000000000000E+000  0.000000000000E+000 -1.000000000000E-002  0.000000000000E+000  0.000000000000E+000  0.000000000000E+000  0.000000000000E+000  0.000000000000E+000  0.000000000000E+000  0.000000000000E+000  0.000000000000E+000  0.000000000000E+000  0.000000000000E+000  0.000000000000E+000  0.000000000000E+000  0.000000000000E+000  0.000000000000E+000  0.000000000000E+000  0.000000000000E+000  0.000000000000E+000
    0.000000000000E+000  0.000000000000E+000  0.000000000000E+000  0.000000000000E+000  0.000000000000E+000  0.000000000000E+000  0.000000000000E+000  0.000000000000E+000  0.000000000000E+000  0.000000000000E+000  0.000000000000E+000 -1.000000000000E-002  0.000000000000E+000  0.000000000000E+000  0.000000000000E+000  0.000000000000E+000  0.000000000000E+000  0.000000000000E+000  0.000000000000E+000  0.000000000000E+000  0.000000000000E+000  0.000000000000E+000  0.000000000000E+000  0.000000000000E+000  0.000000000000E+000  0.000000000000E+000  0.000000000000E+000  0.000000000000E+000
    0.000000000000E+000  0.000000000000E+000  0.000000000000E+000  0.000000000000E+000  0.000000000000E+000  0.000000000000E+000  0.000000000000E+000  0.000000000000E+000  0.000000000000E+000  0.000000000000E+000  0.000000000000E+000  0.000000000000E+000 -1.000000000000E-002  0.000000000000E+000  0.000000000000E+000  0.000000000000E+000  0.000000000000E+000  0.000000000000E+000  0.000000000000E+000  0.000000000000E+000  0.000000000000E+000  0.000000000000E+000  0.000000000000E+000  0.000000000000E+000  0.000000000000E+000  0.000000000000E+000  0.000000000000E+000  0.000000000000E+000
    0.000000000000E+000  0.000000000000E+000  0.000000000000E+000  0.000000000000E+000  0.000000000000E+000  0.000000000000E+000  0.000000000000E+000  0.000000000000E+000  0.000000000000E+000  0.000000000000E+000  0.000000000000E+000  0.000000000000E+000  0.000000000000E+000 -1.000000000000E-002  0.000000000000E+000  0.000000000000E+000  0.000000000000E+000  0.000000000000E+000  0.000000000000E+000  0.000000000000E+000  0.000000000000E+000  0.000000000000E+000  0.000000000000E+000  0.000000000000E+000  0.000000000000E+000  0.000000000000E+000  0.000000000000E+000  0.000000000000E+000
    0.000000000000E+000  0.000000000000E+000  0.000000000000E+000  0.000000000000E+000  0.000000000000E+000  0.000000000000E+000  0.000000000000E+000  0.000000000000E+000  0.000000000000E+000  0.000000000000E+000  0.000000000000E+000  0.000000000000E+000  0.000000000000E+000  0.000000000000E+000 -1.000000000000E-002  0.000000000000E+000  0.000000000000E+000  0.000000000000E+000  0.000000000000E+000  0.000000000000E+000  0.000000000000E+000  0.000000000000E+000  0.000000000000E+000  0.000000000000E+000  0.000000000000E+000  0.000000000000E+000  0.000000000000E+000  0.000000000000E+000
    0.000000000000E+000  0.000000000000E+000  0.000000000000E+000  0.000000000000E+000  0.000000000000E+000  0.000000000000E+000  0.000000000000E+000  0.000000000000E+000  0.000000000000E+000  0.000000000000E+000  0.000000000000E+000  0.000000000000E+000  0.000000000000E+000  0.000000000000E+000  0.000000000000E+000 -1.000000000000E-002  0.000000000000E+000  0.000000000000E+000  0.000000000000E+000  0.000000000000E+000  0.000000000000E+000  0.000000000000E+000  0.000000000000E+000  0.000000000000E+000  0.000000000000E+000  0.000000000000E+000  0.000000000000E+000  0.000000000000E+000
    0.000000000000E+000  0.000000000000E+000  1.852416363948E-002 -7.199115792443E-003  0.000000000000E+000  0.000000000000E+000  0.000000000000E+000  0.000000000000E+000  0.000000000000E+000  0.000000000000E+000  0.000000000000E+000  0.000000000000E+000  0.000000000000E+000  0.000000000000E+000  0.000000000000E+000  0.000000000000E+000 -2.260923145558E+000  0.000000000000E+000  0.000000000000E+000  0.000000000000E+000  0.000000000000E+000  0.000000000000E+000  0.000000000000E+000  0.000000000000E+000  0.000000000000E+000  0.000000000000E+000  0.000000000000E+000  0.000000000000E+000
    0.000000000000E+000  0.000000000000E+000  1.628366739592E-001 -6.552468724882E-002  0.000000000000E+000  0.000000000000E+000  0.000000000000E+000  0.000000000000E+000  0.000000000000E+000  0.000000000000E+000  0.000000000000E+000  0.000000000000E+000  0.000000000000E+000  0.000000000000E+000  0.000000000000E+000  0.000000000000E+000  0.000000000000E+000 -8.559209051040E+000  0.000000000000E+000  0.000000000000E+000  0.000000000000E+000  0.000000000000E+000  0.000000000000E+000  0.000000000000E+000  0.000000000000E+000  0.000000000000E+000  0.000000000000E+000  0.000000000000E+000
    0.000000000000E+000  0.000000000000E+000  3.862665226149E-003  9.407905936640E-003  0.000000000000E+000  0.000000000000E+000  0.000000000000E+000  0.000000000000E+000  0.000000000000E+000  0.000000000000E+000  0.000000000000E+000  0.000000000000E+000  0.000000000000E+000  0.000000000000E+000  0.000000000000E+000  0.000000000000E+000  7.293500575642E+001  7.293500575642E+001 -9.499677082175E+000  0.000000000000E+000  0.000000000000E+000  0.000000000000E+000  0.000000000000E+000  0.000000000000E+000  0.000000000000E+000  0.000000000000E+000  0.000000000000E+000  0.000000000000E+000
    0.000000000000E+000  0.000000000000E+000 -1.505073544642E-003 -3.665756545425E-003  0.000000000000E+000  0.000000000000E+000  0.000000000000E+000  0.000000000000E+000  0.000000000000E+000  0.000000000000E+000  0.000000000000E+000  0.000000000000E+000  0.000000000000E+000  0.000000000000E+000  0.000000000000E+000  0.000000000000E+000  0.000000000000E+000  0.000000000000E+000 -1.777783736550E+000 -5.383150346565E+000  0.000000000000E+000  0.000000000000E+000  0.000000000000E+000  0.000000000000E+000  0.000000000000E+000  0.000000000000E+000  0.000000000000E+000  0.000000000000E+000
    0.000000000000E+000  0.000000000000E+000  0.000000000000E+000  0.000000000000E+000  2.742491376685E-002 -6.615645325643E-003  0.000000000000E+000  0.000000000000E+000  0.000000000000E+000  0.000000000000E+000  0.000000000000E+000  0.000000000000E+000  0.000000000000E+000  0.000000000000E+000  0.000000000000E+000  0.000000000000E+000  0.000000000000E+000  0.000000000000E+000  0.000000000000E+000  0.000000000000E+000 -5.509763013915E+000  0.000000000000E+000  0.000000000000E+000  0.000000000000E+000  0.000000000000E+000  0.000000000000E+000  0.000000000000E+000  0.000000000000E+000
    0.000000000000E+000  0.000000000000E+000  0.000000000000E+000  0.000000000000E+000  2.403238755071E-001 -6.533844946344E-002  0.000000000000E+000  0.000000000000E+000  0.000000000000E+000  0.000000000000E+000  0.000000000000E+000  0.000000000000E+000  0.000000000000E+000  0.000000000000E+000  0.000000000000E+000  0.000000000000E+000  0.000000000000E+000  0.000000000000E+000  0.000000000000E+000  0.000000000000E+000  0.000000000000E+000 -2.085838855268E+001  0.000000000000E+000  0.000000000000E+000  0.000000000000E+000  0.000000000000E+000  0.000000000000E+000  0.000000000000E+000
    0.000000000000E+000  0.000000000000E+000  0.000000000000E+000  0.000000000000E+000  4.440698809642E-003  1.588051852287E-002  0.000000000000E+000  0.000000000000E+000  0.000000000000E+000  0.000000000000E+000  0.000000000000E+000  0.000000000000E+000  0.000000000000E+000  0.000000000000E+000  0.000000000000E+000  0.000000000000E+000  0.000000000000E+000  0.000000000000E+000  0.000000000000E+000  0.000000000000E+000  1.777391672627E+002  1.777391672627E+002 -2.315026476435E+001  0.000000000000E+000  0.000000000000E+000  0.000000000000E+000  0.000000000000E+000  0.000000000000E+000
    0.000000000000E+000  0.000000000000E+000  0.000000000000E+000  0.000000000000E+000 -2.610148956702E-003 -9.334233333722E-003  0.000000000000E+000  0.000000000000E+000  0.000000000000E+000  0.000000000000E+000  0.000000000000E+000  0.000000000000E+000  0.000000000000E+000  0.000000000000E+000  0.000000000000E+000  0.000000000000E+000  0.000000000000E+000  0.000000000000E+000  0.000000000000E+000  0.000000000000E+000  0.000000000000E+000  0.000000000000E+000 -5.152361754116E+000 -1.311848336646E+001  0.000000000000E+000  0.000000000000E+000  0.000000000000E+000  0.000000000000E+000