
Linearized model: Predictions were generated on 23-Feb-2024 at 10:24:58 using OpenFAST, compiled on Feb 23 2024 at 09:57:41 as a 64-bit application using double precision at commit v3.5.2-961-gd8feecc1-dirty
 linked with  NWTC Subroutine Library; ElastoDyn; InflowWind; AeroDyn

Description from the FAST input file: One Blade, 4 aero-stations, Linearization with continuous States AeroDynamic modules

Simulation information:
   Simulation time:                     1.1000 s
   Rotor Speed:                         1.2671 rad/s
   Azimuth:                             1.3938 rad
   Wind Speed:                         13.0000 m/s
   Number of continuous states:        30
   Number of discrete states:           0
   Number of constraint states:         0
   Number of inputs:                   14
   Number of outputs:                  31
   Jacobians included in this file?    No

Order of continuous states:
   Row/Column Operating Point                                                   Rotating Frame? Derivative Order Description
   ---------- ---------------                                                   --------------- ---------------- -----------
          1    6.244686307999E+000                                                     T               2         ED 1st flapwise bending-mode DOF of blade 1 (internal DOF index = DOF_BF(1,1)), m
          2   -9.975169781376E+000                                                     T               2         ED First time derivative of 1st flapwise bending-mode DOF of blade 1 (internal DOF index = DOF_BF(1,1)), m/s
          3   -1.303013675326E+001                                                     T               2         AD vind (axial) at blade 1, node 1, m/s
          4    0.000000000000E+000                                                     T               2         AD vind (tangential) at blade 1, node 1, m/s
          5   -8.932063693174E-001                                                     T               2         AD vind (axial) at blade 1, node 2, m/s
          6    3.691117474564E-001                                                     T               2         AD vind (tangential) at blade 1, node 2, m/s
          7   -1.265428154636E+000                                                     T               2         AD vind (axial) at blade 1, node 3, m/s
          8    2.846961877434E-001                                                     T               2         AD vind (tangential) at blade 1, node 3, m/s
          9   -1.411520328671E+001                                                     T               2         AD vind (axial) at blade 1, node 4, m/s
         10    0.000000000000E+000                                                     T               2         AD vind (tangential) at blade 1, node 4, m/s
         11   -5.212118268916E+000                                                     T               2         AD First time derivative of vind (axial) at blade 1, node 1, m/s/s
         12    0.000000000000E+000                                                     T               2         AD First time derivative of vind (tangential) at blade 1, node 1, m/s/s
         13   -3.570780418522E-001                                                     T               2         AD First time derivative of vind (axial) at blade 1, node 2, m/s/s
         14    1.476657475889E-001                                                     T               2         AD First time derivative of vind (tangential) at blade 1, node 2, m/s/s
         15   -5.061862212345E-001                                                     T               2         AD First time derivative of vind (axial) at blade 1, node 3, m/s/s
         16    1.142691158356E-001                                                     T               2         AD First time derivative of vind (tangential) at blade 1, node 3, m/s/s
         17   -5.749611780548E+000                                                     T               2         AD First time derivative of vind (axial) at blade 1, node 4, m/s/s
         18    0.000000000000E+000                                                     T               2         AD First time derivative of vind (tangential) at blade 1, node 4, m/s/s
         19    6.474575633533E-002                                                     T               1         AD x1 blade 1, node 2, rad
         20    1.593840338610E-001                                                     T               1         AD x2 blade 1, node 2, rad
         21    2.279600107027E+000                                                     T               1         AD x3 blade 1, node 2, -
         22    3.754631058571E-001                                                     T               1         AD x4 blade 1, node 2, -
         23    5.550632374884E-002                                                     T               1         AD x1 blade 1, node 3, rad
         24    1.491542330370E-001                                                     T               1         AD x2 blade 1, node 3, rad
         25    2.125962675145E+000                                                     T               1         AD x3 blade 1, node 3, -
         26    4.481163280746E-001                                                     T               1         AD x4 blade 1, node 3, -
         27   -9.113015095055E-004                                                     T               1         AD x1 blade 1, node 4, rad
         28   -1.941070049926E-003                                                     T               1         AD x2 blade 1, node 4, rad
         29    5.788725264974E-001                                                     T               1         AD x3 blade 1, node 4, -
         30    5.201146159078E-001                                                     T               1         AD x4 blade 1, node 4, -

Order of continuous state derivatives:
   Row/Column Operating Point                                                   Rotating Frame? Derivative Order Description
   ---------- ---------------                                                   --------------- ---------------- -----------
          1   -9.975169781376E+000                                                     T               2         First time derivative of ED 1st flapwise bending-mode DOF of blade 1 (internal DOF index = DOF_BF(1,1)), m/s
          2   -6.381941775272E+000                                                     T               2         First time derivative of ED First time derivative of 1st flapwise bending-mode DOF of blade 1 (internal DOF index = DOF_BF(1,1)), m/s/s
          3    1.160564194006E-003                                                     T               2         First time derivative of AD vind (axial) at blade 1, node 1, m/s/s
          4    0.000000000000E+000                                                     T               2         First time derivative of AD vind (tangential) at blade 1, node 1, m/s/s
          5   -6.145283109761E-004                                                     T               2         First time derivative of AD vind (axial) at blade 1, node 2, m/s/s
          6    1.569585796914E-004                                                     T               2         First time derivative of AD vind (tangential) at blade 1, node 2, m/s/s
          7    1.726746073703E-003                                                     T               2         First time derivative of AD vind (axial) at blade 1, node 3, m/s/s
          8    1.076821676499E-003                                                     T               2         First time derivative of AD vind (tangential) at blade 1, node 3, m/s/s
          9   -4.150787324253E-001                                                     T               2         First time derivative of AD vind (axial) at blade 1, node 4, m/s/s
         10    0.000000000000E+000                                                     T               2         First time derivative of AD vind (tangential) at blade 1, node 4, m/s/s
         11    3.026921122998E-004                                                     T               2         First time derivative of AD First time derivative of vind (axial) at blade 1, node 1, m/s/s/s
         12    0.000000000000E+000                                                     T               2         First time derivative of AD First time derivative of vind (tangential) at blade 1, node 1, m/s/s/s
         13   -1.476602414734E-004                                                     T               2         First time derivative of AD First time derivative of vind (axial) at blade 1, node 2, m/s/s/s
         14    3.649299163198E-005                                                     T               2         First time derivative of AD First time derivative of vind (tangential) at blade 1, node 2, m/s/s/s
         15    2.995327038329E-004                                                     T               2         First time derivative of AD First time derivative of vind (axial) at blade 1, node 3, m/s/s/s
         16    1.801263933832E-004                                                     T               2         First time derivative of AD First time derivative of vind (tangential) at blade 1, node 3, m/s/s/s
         17   -3.424798237915E-002                                                     T               2         First time derivative of AD First time derivative of vind (axial) at blade 1, node 4, m/s/s/s
         18    0.000000000000E+000                                                     T               2         First time derivative of AD First time derivative of vind (tangential) at blade 1, node 4, m/s/s/s
         19    1.039582312750E-002                                                     T               1         First time derivative of AD x1 blade 1, node 2, rad/s
         20    2.069725516257E-002                                                     T               1         First time derivative of AD x2 blade 1, node 2, rad/s
         21    3.735186658221E-001                                                     T               1         First time derivative of AD x3 blade 1, node 2, -/s
         22   -1.343410996796E-001                                                     T               1         First time derivative of AD x4 blade 1, node 2, -/s
         23    5.305104635307E-002                                                     T               1         First time derivative of AD x1 blade 1, node 3, rad/s
         24    5.896690266071E-002                                                     T               1         First time derivative of AD x2 blade 1, node 3, rad/s
         25    1.163887563659E+000                                                     T               1         First time derivative of AD x3 blade 1, node 3, -/s
         26   -5.597068774887E-001                                                     T               1         First time derivative of AD x4 blade 1, node 3, -/s
         27    1.697605649780E-003                                                     T               1         First time derivative of AD x1 blade 1, node 4, rad/s
         28    4.032726348714E-003                                                     T               1         First time derivative of AD x2 blade 1, node 4, rad/s
         29    3.103318421552E-002                                                     T               1         First time derivative of AD x3 blade 1, node 4, -/s
         30    1.203294011644E-002                                                     T               1         First time derivative of AD x4 blade 1, node 4, -/s

Order of inputs:
     Column   Operating Point                                                   Rotating Frame? Derivative Order Description
   ---------- ---------------                                                   --------------- ---------------- -----------
          1    1.300000000000E+001                                                     F               0         IfW Extended input: horizontal wind speed (steady/uniform wind), m/s
          2    2.000000000000E-001                                                     F               0         IfW Extended input: vertical power-law shear exponent, -
          3    0.000000000000E+000                                                     F               0         IfW Extended input: propagation direction, rad
          4    0.000000000000E+000                                                     T               0         ED Blade 1 pitch command, rad
          5    0.000000000000E+000                                                     F               0         ED Yaw moment, Nm
          6    0.000000000000E+000                                                     F               0         ED Generator torque, Nm
          7    0.000000000000E+000                                                     F               0         ED Extended input: collective blade-pitch command, rad
          8    0.000000000000E+000                                                     T               0         AD User property on blade 1, node 1, -
          9    0.000000000000E+000                                                     T               0         AD User property on blade 1, node 2, -
         10    0.000000000000E+000                                                     T               0         AD User property on blade 1, node 3, -
         11    0.000000000000E+000                                                     T               0         AD User property on blade 1, node 4, -
         12    1.300000000000E+001                                                     F               0         AD Extended input: horizontal wind speed (steady/uniform wind), m/s
         13    2.000000000000E-001                                                     F               0         AD Extended input: vertical power-law shear exponent, -
         14    0.000000000000E+000                                                     F               0         AD Extended input: propagation direction, rad

Order of outputs:
        Row   Operating Point                                                   Rotating Frame? Derivative Order Description
   ---------- ---------------                                                   --------------- ---------------- -----------
          1    1.300000000000E+001                                                     F               0         IfW Wind1VelX, (m/s)
          2   -0.000000000000E+000                                                     F               0         IfW Wind1VelY, (m/s)
          3    0.000000000000E+000                                                     F               0         IfW Wind1VelZ, (m/s)
          4    3.203902818609E+002                                                     F               0         ED TwrBsFxt, (kN)
          5    3.177456712807E+004                                                     F               0         ED TwrBsMyt, (kN-m)
          6    6.244686307999E+000                                                     F               0         ED Q_B1F1, (m)
          7    8.778806155890E-002                                                     F               0         AD RtAeroCp, (-)
          8    1.384706475422E-001                                                     F               0         AD RtAeroCt, (-)
          9    1.509771664417E+000                                                     T               0         AD B1N1Cl, (-)
         10    7.500526646744E-002                                                     T               0         AD B1N1AxInd, (-)
         11    5.011850392005E-003                                                     T               0         AD B1N1TnInd, (-)
         12    0.000000000000E+000                                                     T               0         AD AB1N001UA_Flag, (-)
         13    1.000000000000E+000                                                     T               0         AD AB1N002UA_Flag, (-)
         14    1.000000000000E+000                                                     T               0         AD AB1N003UA_Flag, (-)
         15    1.000000000000E+000                                                     T               0         AD AB1N004UA_Flag, (-)
         16    0.000000000000E+000                                                     T               0         AD AB1N001UA_x1, (rad)
         17    6.474575633533E-002                                                     T               0         AD AB1N002UA_x1, (rad)
         18    5.550632374884E-002                                                     T               0         AD AB1N003UA_x1, (rad)
         19   -9.113015095055E-004                                                     T               0         AD AB1N004UA_x1, (rad)
         20    0.000000000000E+000                                                     T               0         AD AB1N001UA_x2, (rad)
         21    1.593840338610E-001                                                     T               0         AD AB1N002UA_x2, (rad)
         22    1.491542330370E-001                                                     T               0         AD AB1N003UA_x2, (rad)
         23   -1.941070049926E-003                                                     T               0         AD AB1N004UA_x2, (rad)
         24    0.000000000000E+000                                                     T               0         AD AB1N001UA_x3, (-)
         25    2.279600107027E+000                                                     T               0         AD AB1N002UA_x3, (-)
         26    2.125962675145E+000                                                     T               0         AD AB1N003UA_x3, (-)
         27    5.788725264974E-001                                                     T               0         AD AB1N004UA_x3, (-)
         28    0.000000000000E+000                                                     T               0         AD AB1N001UA_x4, (-)
         29    3.754631058571E-001                                                     T               0         AD AB1N002UA_x4, (-)
         30    4.481163280746E-001                                                     T               0         AD AB1N003UA_x4, (-)
         31    5.201146159078E-001                                                     T               0         AD AB1N004UA_x4, (-)


Linearized state matrices:

A: 30 x 30
    0.000000000000E+000  1.000000000000E+000  0.000000000000E+000  0.000000000000E+000  0.000000000000E+000  0.000000000000E+000  0.000000000000E+000  0.000000000000E+000  0.000000000000E+000  0.000000000000E+000  0.000000000000E+000  0.000000000000E+000  0.000000000000E+000  0.000000000000E+000  0.000000000000E+000  0.000000000000E+000  0.000000000000E+000  0.000000000000E+000  0.000000000000E+000  0.000000000000E+000  0.000000000000E+000  0.000000000000E+000  0.000000000000E+000  0.000000000000E+000  0.000000000000E+000  0.000000000000E+000  0.000000000000E+000  0.000000000000E+000  0.000000000000E+000  0.000000000000E+000
   -1.600448854400E+001 -4.958138253085E-002  0.000000000000E+000  0.000000000000E+000  1.861930224915E-001  4.169408977551E-001  6.216080825055E-001  2.020057553087E+000  0.000000000000E+000  0.000000000000E+000  0.000000000000E+000  0.000000000000E+000  0.000000000000E+000  0.000000000000E+000  0.000000000000E+000  0.000000000000E+000  0.000000000000E+000  0.000000000000E+000  2.208583049937E+001  2.208583049937E+001  0.000000000000E+000  6.764089768370E+000  1.977629672098E+002  1.977629672098E+002  0.000000000000E+000  4.998666056289E+001  1.771186099716E+002  1.771186099716E+002  0.000000000000E+000  9.401797123652E+000
    2.110870870787E-020  5.724512154309E-022 -2.565071974878E-002  0.000000000000E+000 -2.150233804505E-022 -4.814402575465E-022 -4.128328068877E-022 -1.339419188960E-021  0.000000000000E+000  0.000000000000E+000  2.565071974878E-002  0.000000000000E+000  0.000000000000E+000  0.000000000000E+000  0.000000000000E+000  0.000000000000E+000  0.000000000000E+000  0.000000000000E+000 -2.554295918557E-020 -2.554295918557E-020  0.000000000000E+000 -7.817863468545E-021 -1.320214531233E-019 -1.320214531233E-019  0.000000000000E+000 -3.325793360262E-020 -1.700205838146E-019 -1.700205838146E-019  0.000000000000E+000 -8.980967161619E-021
    0.000000000000E+000  0.000000000000E+000  0.000000000000E+000 -2.565071974878E-002  0.000000000000E+000  0.000000000000E+000  0.000000000000E+000  0.000000000000E+000  0.000000000000E+000  0.000000000000E+000  0.000000000000E+000  2.565071974878E-002  0.000000000000E+000  0.000000000000E+000  0.000000000000E+000  0.000000000000E+000  0.000000000000E+000  0.000000000000E+000  0.000000000000E+000  0.000000000000E+000  0.000000000000E+000  0.000000000000E+000  0.000000000000E+000  0.000000000000E+000  0.000000000000E+000  0.000000000000E+000  0.000000000000E+000  0.000000000000E+000  0.000000000000E+000  0.000000000000E+000
   -9.718299244198E-006 -7.858490208950E-005  0.000000000000E+000  0.000000000000E+000 -2.840072093401E-002  4.134591203352E-021  6.082369999797E-021  1.962662489550E-020  0.000000000000E+000  0.000000000000E+000  0.000000000000E+000  0.000000000000E+000  2.840072093401E-002  0.000000000000E+000  0.000000000000E+000  0.000000000000E+000  0.000000000000E+000  0.000000000000E+000  2.267045770807E-019  2.267045770807E-019  0.000000000000E+000  6.847893293674E-020  1.978497274862E-018  1.978497274862E-018  0.000000000000E+000  4.928670470478E-019  2.256061338166E-018  2.256061338166E-018  0.000000000000E+000  1.200041850658E-019
   -2.635505252226E-006 -1.515306280202E-005  0.000000000000E+000  0.000000000000E+000 -6.728813135361E-022 -2.840072093401E-002 -2.229936389755E-021 -7.197179733811E-021  0.000000000000E+000  0.000000000000E+000  0.000000000000E+000  0.000000000000E+000  0.000000000000E+000  2.840072093401E-002  0.000000000000E+000  0.000000000000E+000  0.000000000000E+000  0.000000000000E+000 -8.217925278671E-020 -8.217925278671E-020  0.000000000000E+000 -2.485088194888E-020 -7.248890627560E-019 -7.248890627560E-019  0.000000000000E+000 -1.806682287452E-019 -8.145099985316E-019 -8.145099985316E-019  0.000000000000E+000 -4.333209716286E-020
   -5.480163467994E-005 -3.433914264051E-004  0.000000000000E+000  0.000000000000E+000  6.910241605094E-021  1.544282232105E-020 -3.846401513958E-002  5.723872005662E-020  0.000000000000E+000  0.000000000000E+000  0.000000000000E+000  0.000000000000E+000  0.000000000000E+000  0.000000000000E+000  3.846401513958E-002  0.000000000000E+000  0.000000000000E+000  0.000000000000E+000  8.388164802511E-019  8.388164802511E-019  0.000000000000E+000  2.542999548226E-019  5.780485667284E-018  5.780485667284E-018  0.000000000000E+000  1.439146945705E-018  7.627780980076E-018  7.627780980076E-018  0.000000000000E+000  4.062313609806E-019
   -1.425865557299E-005 -1.201314913374E-004  0.000000000000E+000  0.000000000000E+000 -1.532625185523E-021 -3.424688063574E-021 -3.485600625084E-021 -3.846401513958E-002  0.000000000000E+000  0.000000000000E+000  0.000000000000E+000  0.000000000000E+000  0.000000000000E+000  0.000000000000E+000  0.000000000000E+000  3.846401513958E-002  0.000000000000E+000  0.000000000000E+000 -1.863645352203E-019 -1.863645352203E-019  0.000000000000E+000 -5.646763525006E-020 -1.142410002590E-018 -1.142410002590E-018  0.000000000000E+000 -2.832543264549E-019 -1.815218259550E-018 -1.815218259550E-018  0.000000000000E+000 -9.685208378978E-020
    8.633397872244E-003  4.789533311504E-002  0.000000000000E+000  0.000000000000E+000  1.937039794981E-019  4.341477836337E-019  4.278522959686E-019  1.381648626978E-018 -7.692307692308E-002  0.000000000000E+000  0.000000000000E+000  0.000000000000E+000  0.000000000000E+000  0.000000000000E+000  0.000000000000E+000  0.000000000000E+000  7.692307692308E-002  0.000000000000E+000  2.277027122366E-017  2.277027122366E-017  0.000000000000E+000  7.005662907649E-018  1.388505201353E-016  1.388505201353E-016  0.000000000000E+000  3.464403348520E-017  1.119666156711E-016  1.119666156711E-016  0.000000000000E+000  5.894373431772E-018
    0.000000000000E+000  0.000000000000E+000  0.000000000000E+000  0.000000000000E+000  0.000000000000E+000  0.000000000000E+000  0.000000000000E+000  0.000000000000E+000  0.000000000000E+000 -7.692307692308E-002  0.000000000000E+000  0.000000000000E+000  0.000000000000E+000  0.000000000000E+000  0.000000000000E+000  0.000000000000E+000  0.000000000000E+000  7.692307692308E-002  0.000000000000E+000  0.000000000000E+000  0.000000000000E+000  0.000000000000E+000  0.000000000000E+000  0.000000000000E+000  0.000000000000E+000  0.000000000000E+000  0.000000000000E+000  0.000000000000E+000  0.000000000000E+000  0.000000000000E+000
    5.486190099044E-021  1.487810663244E-022  0.000000000000E+000  0.000000000000E+000 -5.588495048263E-023 -1.251271601114E-022 -1.072959643839E-022 -3.481173763231E-022  0.000000000000E+000  0.000000000000E+000 -1.000000000000E-002  0.000000000000E+000  0.000000000000E+000  0.000000000000E+000  0.000000000000E+000  0.000000000000E+000  0.000000000000E+000  0.000000000000E+000 -6.638659508909E-021 -6.638659508909E-021  0.000000000000E+000 -2.031876309935E-021 -3.431260523849E-020 -3.431260523849E-020  0.000000000000E+000 -8.643794775450E-021 -4.418864538172E-020 -4.418864538172E-020  0.000000000000E+000 -2.334168982284E-021
    0.000000000000E+000  0.000000000000E+000  0.000000000000E+000  0.000000000000E+000  0.000000000000E+000  0.000000000000E+000  0.000000000000E+000  0.000000000000E+000  0.000000000000E+000  0.000000000000E+000  0.000000000000E+000 -1.000000000000E-002  0.000000000000E+000  0.000000000000E+000  0.000000000000E+000  0.000000000000E+000  0.000000000000E+000  0.000000000000E+000  0.000000000000E+000  0.000000000000E+000  0.000000000000E+000  0.000000000000E+000  0.000000000000E+000  0.000000000000E+000  0.000000000000E+000  0.000000000000E+000  0.000000000000E+000  0.000000000000E+000  0.000000000000E+000  0.000000000000E+000
   -2.281232993293E-006 -1.844669184563E-005  0.000000000000E+000  0.000000000000E+000  4.346110190746E-022  9.705366782669E-022  1.427750141491E-021  4.607071992082E-021  0.000000000000E+000  0.000000000000E+000  0.000000000000E+000  0.000000000000E+000 -1.000000000000E-002  0.000000000000E+000  0.000000000000E+000  0.000000000000E+000  0.000000000000E+000  0.000000000000E+000  5.321568599319E-020  5.321568599319E-020  0.000000000000E+000  1.607445883641E-020  4.644241906063E-019  4.644241906063E-019  0.000000000000E+000  1.156935530364E-019  5.295784200709E-019  5.295784200709E-019  0.000000000000E+000  2.816928141710E-020
   -6.186475003808E-007 -3.556966702179E-006  0.000000000000E+000  0.000000000000E+000 -1.579493504407E-022 -3.527995529561E-022 -5.234459587455E-022 -1.689435924422E-021  0.000000000000E+000  0.000000000000E+000  0.000000000000E+000  0.000000000000E+000  0.000000000000E+000 -1.000000000000E-002  0.000000000000E+000  0.000000000000E+000  0.000000000000E+000  0.000000000000E+000 -1.929041472284E-020 -1.929041472284E-020  0.000000000000E+000 -5.833392282922E-021 -1.701574323742E-019 -1.701574323742E-019  0.000000000000E+000 -4.240930577432E-020 -1.911946766948E-019 -1.911946766948E-019  0.000000000000E+000 -1.017159558814E-020
   -9.498338378710E-006 -5.951734803885E-005  0.000000000000E+000  0.000000000000E+000  1.197698087423E-021  2.676583514057E-021  3.075701930334E-021  9.920739310739E-021  0.000000000000E+000  0.000000000000E+000  0.000000000000E+000  0.000000000000E+000  0.000000000000E+000  0.000000000000E+000 -1.000000000000E-002  0.000000000000E+000  0.000000000000E+000  0.000000000000E+000  1.453854946772E-019  1.453854946772E-019  0.000000000000E+000  4.407582063387E-020  1.001886333899E-018  1.001886333899E-018  0.000000000000E+000  2.494360751613E-019  1.322063570742E-018  1.322063570742E-018  0.000000000000E+000  7.040890201857E-020
   -2.471341160692E-006 -2.082145106302E-005  0.000000000000E+000  0.000000000000E+000 -2.656379267671E-022 -5.935743752780E-022 -6.041318727708E-022 -1.944706180070E-021  0.000000000000E+000  0.000000000000E+000  0.000000000000E+000  0.000000000000E+000  0.000000000000E+000  0.000000000000E+000  0.000000000000E+000 -1.000000000000E-002  0.000000000000E+000  0.000000000000E+000 -3.230110611941E-020 -3.230110611941E-020  0.000000000000E+000 -9.787093216892E-021 -1.980049835229E-019 -1.980049835229E-019  0.000000000000E+000 -4.909425522825E-020 -3.146175722880E-019 -3.146175722880E-019  0.000000000000E+000 -1.678661357259E-020
    7.482278155945E-004  4.150928869970E-003  0.000000000000E+000  0.000000000000E+000  1.678767822317E-020  3.762614124825E-020  3.708053231728E-020  1.197428810047E-019  0.000000000000E+000  0.000000000000E+000  0.000000000000E+000  0.000000000000E+000  0.000000000000E+000  0.000000000000E+000  0.000000000000E+000  0.000000000000E+000 -1.000000000000E-002  0.000000000000E+000  1.973423506050E-018  1.973423506050E-018  0.000000000000E+000  6.071574519962E-019  1.203371174506E-017  1.203371174506E-017  0.000000000000E+000  3.002482902051E-018  9.703773358159E-018  9.703773358159E-018  0.000000000000E+000  5.108456974202E-019