
Linearized model: Predictions were generated on 23-Aug-2023 at 18:11:14 using OpenFAST, compiled on Aug 23 2023 at 17:49:47 as a 64-bit application using double precision at commit -128-NOTFOUND
 linked with  NWTC Subroutine Library; ElastoDyn; InflowWind; AeroDyn

Description from the FAST input file: One Blade, 4 aero-stations, Linearization with continuous States AeroDynamic modules

Simulation information:
   Simulation time:                     1.1000 s
   Rotor Speed:                         1.2671 rad/s
   Azimuth:                             1.3938 rad
   Wind Speed:                         13.0000 m/s
   Number of continuous states:        30
   Number of discrete states:           0
   Number of constraint states:         0
   Number of inputs:                   11
   Number of outputs:                  31
   Jacobians included in this file?    No

Order of continuous states:
   Row/Column Operating Point                                                   Rotating Frame? Derivative Order Description
   ---------- ---------------                                                   --------------- ---------------- -----------
          1    6.244686307999E+000                                                     T               2         ED 1st flapwise bending-mode DOF of blade 1 (internal DOF index = DOF_BF(1,1)), m
          2   -9.975169781376E+000                                                     T               2         ED First time derivative of 1st flapwise bending-mode DOF of blade 1 (internal DOF index = DOF_BF(1,1)), m/s
          3   -1.303013675326E+001                                                     T               2         AD vind (axial) at blade 1, node 1, m/s
          4    0.000000000000E+000                                                     T               2         AD vind (tangential) at blade 1, node 1, m/s
          5   -8.932063693174E-001                                                     T               2         AD vind (axial) at blade 1, node 2, m/s
          6    3.691117474564E-001                                                     T               2         AD vind (tangential) at blade 1, node 2, m/s
          7   -1.265428154636E+000                                                     T               2         AD vind (axial) at blade 1, node 3, m/s
          8    2.846961877434E-001                                                     T               2         AD vind (tangential) at blade 1, node 3, m/s
          9   -1.411520328671E+001                                                     T               2         AD vind (axial) at blade 1, node 4, m/s
         10    0.000000000000E+000                                                     T               2         AD vind (tangential) at blade 1, node 4, m/s
         11   -5.212118268916E+000                                                     T               2         AD First time derivative of vind (axial) at blade 1, node 1, m/s/s
         12    0.000000000000E+000                                                     T               2         AD First time derivative of vind (tangential) at blade 1, node 1, m/s/s
         13   -3.570780418522E-001                                                     T               2         AD First time derivative of vind (axial) at blade 1, node 2, m/s/s
         14    1.476657475889E-001                                                     T               2         AD First time derivative of vind (tangential) at blade 1, node 2, m/s/s
         15   -5.061862212345E-001                                                     T               2         AD First time derivative of vind (axial) at blade 1, node 3, m/s/s
         16    1.142691158356E-001                                                     T               2         AD First time derivative of vind (tangential) at blade 1, node 3, m/s/s
         17   -5.749611780548E+000                                                     T               2         AD First time derivative of vind (axial) at blade 1, node 4, m/s/s
         18    0.000000000000E+000                                                     T               2         AD First time derivative of vind (tangential) at blade 1, node 4, m/s/s
         19    6.474575633533E-002                                                     T               1         AD x1 blade 1, node 2, rad
         20    1.593840338610E-001                                                     T               1         AD x2 blade 1, node 2, rad
         21    2.279600107027E+000                                                     T               1         AD x3 blade 1, node 2, -
         22    3.754631058571E-001                                                     T               1         AD x4 blade 1, node 2, -
         23    5.550632374884E-002                                                     T               1         AD x1 blade 1, node 3, rad
         24    1.491542330370E-001                                                     T               1         AD x2 blade 1, node 3, rad
         25    2.125962675145E+000                                                     T               1         AD x3 blade 1, node 3, -
         26    4.481163280746E-001                                                     T               1         AD x4 blade 1, node 3, -
         27   -9.113015095055E-004                                                     T               1         AD x1 blade 1, node 4, rad
         28   -1.941070049926E-003                                                     T               1         AD x2 blade 1, node 4, rad
         29    5.788725264974E-001                                                     T               1         AD x3 blade 1, node 4, -
         30    5.201146159078E-001                                                     T               1         AD x4 blade 1, node 4, -

Order of continuous state derivatives:
   Row/Column Operating Point                                                   Rotating Frame? Derivative Order Description
   ---------- ---------------                                                   --------------- ---------------- -----------
          1   -9.975169781376E+000                                                     T               2         First time derivative of ED 1st flapwise bending-mode DOF of blade 1 (internal DOF index = DOF_BF(1,1)), m/s
          2   -6.381941775272E+000                                                     T               2         First time derivative of ED First time derivative of 1st flapwise bending-mode DOF of blade 1 (internal DOF index = DOF_BF(1,1)), m/s/s
          3    1.160564194006E-003                                                     T               2         First time derivative of AD vind (axial) at blade 1, node 1, m/s/s
          4    0.000000000000E+000                                                     T               2         First time derivative of AD vind (tangential) at blade 1, node 1, m/s/s
          5   -6.145283109761E-004                                                     T               2         First time derivative of AD vind (axial) at blade 1, node 2, m/s/s
          6    1.569585796914E-004                                                     T               2         First time derivative of AD vind (tangential) at blade 1, node 2, m/s/s
          7    1.726746073703E-003                                                     T               2         First time derivative of AD vind (axial) at blade 1, node 3, m/s/s
          8    1.076821676499E-003                                                     T               2         First time derivative of AD vind (tangential) at blade 1, node 3, m/s/s
          9   -4.150787324253E-001                                                     T               2         First time derivative of AD vind (axial) at blade 1, node 4, m/s/s
         10    0.000000000000E+000                                                     T               2         First time derivative of AD vind (tangential) at blade 1, node 4, m/s/s
         11    3.026921122998E-004                                                     T               2         First time derivative of AD First time derivative of vind (axial) at blade 1, node 1, m/s/s/s
         12    0.000000000000E+000                                                     T               2         First time derivative of AD First time derivative of vind (tangential) at blade 1, node 1, m/s/s/s
         13   -1.476602414734E-004                                                     T               2         First time derivative of AD First time derivative of vind (axial) at blade 1, node 2, m/s/s/s
         14    3.649299163198E-005                                                     T               2         First time derivative of AD First time derivative of vind (tangential) at blade 1, node 2, m/s/s/s
         15    2.995327038329E-004                                                     T               2         First time derivative of AD First time derivative of vind (axial) at blade 1, node 3, m/s/s/s
         16    1.801263933832E-004                                                     T               2         First time derivative of AD First time derivative of vind (tangential) at blade 1, node 3, m/s/s/s
         17   -3.424798237915E-002                                                     T               2         First time derivative of AD First time derivative of vind (axial) at blade 1, node 4, m/s/s/s
         18    0.000000000000E+000                                                     T               2         First time derivative of AD First time derivative of vind (tangential) at blade 1, node 4, m/s/s/s
         19    1.039582312750E-002                                                     T               1         First time derivative of AD x1 blade 1, node 2, rad/s
         20    2.069725516257E-002                                                     T               1         First time derivative of AD x2 blade 1, node 2, rad/s
         21    3.735186658221E-001                                                     T               1         First time derivative of AD x3 blade 1, node 2, -/s
         22   -1.343410996796E-001                                                     T               1         First time derivative of AD x4 blade 1, node 2, -/s
         23    5.305104635307E-002                                                     T               1         First time derivative of AD x1 blade 1, node 3, rad/s
         24    5.896690266071E-002                                                     T               1         First time derivative of AD x2 blade 1, node 3, rad/s
         25    1.163887563659E+000                                                     T               1         First time derivative of AD x3 blade 1, node 3, -/s
         26   -5.597068774887E-001                                                     T               1         First time derivative of AD x4 blade 1, node 3, -/s
         27    1.697605649780E-003                                                     T               1         First time derivative of AD x1 blade 1, node 4, rad/s
         28    4.032726348714E-003                                                     T               1         First time derivative of AD x2 blade 1, node 4, rad/s
         29    3.103318421552E-002                                                     T               1         First time derivative of AD x3 blade 1, node 4, -/s
         30    1.203294011644E-002                                                     T               1         First time derivative of AD x4 blade 1, node 4, -/s

Order of inputs:
     Column   Operating Point                                                   Rotating Frame? Derivative Order Description
   ---------- ---------------                                                   --------------- ---------------- -----------
          1    1.300000000000E+001                                                     F               0         IfW Extended input: horizontal wind speed (steady/uniform wind), m/s
          2    2.000000000000E-001                                                     F               0         IfW Extended input: vertical power-law shear exponent, -
          3    0.000000000000E+000                                                     F               0         IfW Extended input: propagation direction, rad
          4    0.000000000000E+000                                                     T               0         ED Blade 1 pitch command, rad
          5    0.000000000000E+000                                                     F               0         ED Yaw moment, Nm
          6    0.000000000000E+000                                                     F               0         ED Generator torque, Nm
          7    0.000000000000E+000                                                     F               0         ED Extended input: collective blade-pitch command, rad
          8    0.000000000000E+000                                                     T               0         AD User property on blade 1, node 1, -
          9    0.000000000000E+000                                                     T               0         AD User property on blade 1, node 2, -
         10    0.000000000000E+000                                                     T               0         AD User property on blade 1, node 3, -
         11    0.000000000000E+000                                                     T               0         AD User property on blade 1, node 4, -

Order of outputs:
        Row   Operating Point                                                   Rotating Frame? Derivative Order Description
   ---------- ---------------                                                   --------------- ---------------- -----------
          1    1.300000000000E+001                                                     F               0         IfW Wind1VelX, (m/s)
          2   -0.000000000000E+000                                                     F               0         IfW Wind1VelY, (m/s)
          3    0.000000000000E+000                                                     F               0         IfW Wind1VelZ, (m/s)
          4    3.203902818609E+002                                                     F               0         ED TwrBsFxt, (kN)
          5    3.177456712807E+004                                                     F               0         ED TwrBsMyt, (kN-m)
          6    6.244686307999E+000                                                     F               0         ED Q_B1F1, (m)
          7    8.778806155890E-002                                                     F               0         AD RtAeroCp, (-)
          8    1.384706475422E-001                                                     F               0         AD RtAeroCt, (-)
          9    1.509771664417E+000                                                     T               0         AD B1N1Cl, (-)
         10    7.500526646744E-002                                                     T               0         AD B1N1AxInd, (-)
         11    5.011850392005E-003                                                     T               0         AD B1N1TnInd, (-)
         12    0.000000000000E+000                                                     T               0         AD AB1N001UA_Flag, (-)
         13    1.000000000000E+000                                                     T               0         AD AB1N002UA_Flag, (-)
         14    1.000000000000E+000                                                     T               0         AD AB1N003UA_Flag, (-)
         15    1.000000000000E+000                                                     T               0         AD AB1N004UA_Flag, (-)
         16    0.000000000000E+000                                                     T               0         AD AB1N001UA_x1, (rad)
         17    6.474575633533E-002                                                     T               0         AD AB1N002UA_x1, (rad)
         18    5.550632374884E-002                                                     T               0         AD AB1N003UA_x1, (rad)
         19   -9.113015095055E-004                                                     T               0         AD AB1N004UA_x1, (rad)
         20    0.000000000000E+000                                                     T               0         AD AB1N001UA_x2, (rad)
         21    1.593840338610E-001                                                     T               0         AD AB1N002UA_x2, (rad)
         22    1.491542330370E-001                                                     T               0         AD AB1N003UA_x2, (rad)
         23   -1.941070049926E-003                                                     T               0         AD AB1N004UA_x2, (rad)
         24    0.000000000000E+000                                                     T               0         AD AB1N001UA_x3, (-)
         25    2.279600107027E+000                                                     T               0         AD AB1N002UA_x3, (-)
         26    2.125962675145E+000                                                     T               0         AD AB1N003UA_x3, (-)
         27    5.788725264974E-001                                                     T               0         AD AB1N004UA_x3, (-)
         28    0.000000000000E+000                                                     T               0         AD AB1N001UA_x4, (-)
         29    3.754631058571E-001                                                     T               0         AD AB1N002UA_x4, (-)
         30    4.481163280746E-001                                                     T               0         AD AB1N003UA_x4, (-)
         31    5.201146159078E-001                                                     T               0         AD AB1N004UA_x4, (-)


Linearized state matrices:

A: 30 x 30
    0.000000000000E+000  1.000000000000E+000  0.000000000000E+000  0.000000000000E+000  0.000000000000E+000  0.000000000000E+000  0.000000000000E+000  0.000000000000E+000  0.000000000000E+000  0.000000000000E+000  0.000000000000E+000  0.000000000000E+000  0.000000000000E+000  0.000000000000E+000  0.000000000000E+000  0.000000000000E+000  0.000000000000E+000  0.000000000000E+000  0.000000000000E+000  0.000000000000E+000  0.000000000000E+000  0.000000000000E+000  0.000000000000E+000  0.000000000000E+000  0.000000000000E+000  0.000000000000E+000  0.000000000000E+000  0.000000000000E+000  0.000000000000E+000  0.000000000000E+000
   -1.600448854105E+001 -4.958138253095E-002  0.000000000000E+000  0.000000000000E+000  1.861930224915E-001  4.169408977551E-001  6.216080825053E-001  2.020057553087E+000  0.000000000000E+000  0.000000000000E+000  0.000000000000E+000  0.000000000000E+000  0.000000000000E+000  0.000000000000E+000  0.000000000000E+000  0.000000000000E+000  0.000000000000E+000  0.000000000000E+000  2.208583049937E+001  2.208583049937E+001  0.000000000000E+000  6.764089768370E+000  1.977629672098E+002  1.977629672098E+002  0.000000000000E+000  4.998666056284E+001  1.771186099716E+002  1.771186099716E+002  0.000000000000E+000  9.401797123652E+000
    9.667605683623E-020  1.331712154143E-021 -2.565071974878E-002  0.000000000000E+000  1.087453172174E-021  2.434621532133E-021  3.738875473491E-021  1.215279830616E-020  0.000000000000E+000  0.000000000000E+000  2.565071974878E-002  0.000000000000E+000  0.000000000000E+000  0.000000000000E+000  0.000000000000E+000  0.000000000000E+000  0.000000000000E+000  0.000000000000E+000  1.293155551134E-019  1.293155551134E-019  0.000000000000E+000  3.956245629493E-020  1.188794895384E-018  1.188794895384E-018  0.000000000000E+000  3.006230962134E-019  1.153126015018E-018  1.153126015018E-018  0.000000000000E+000  6.122144368259E-020
    0.000000000000E+000  0.000000000000E+000  0.000000000000E+000 -2.565071974878E-002  0.000000000000E+000  0.000000000000E+000  0.000000000000E+000  0.000000000000E+000  0.000000000000E+000  0.000000000000E+000  0.000000000000E+000  2.565071974878E-002  0.000000000000E+000  0.000000000000E+000  0.000000000000E+000  0.000000000000E+000  0.000000000000E+000  0.000000000000E+000  0.000000000000E+000  0.000000000000E+000  0.000000000000E+000  0.000000000000E+000  0.000000000000E+000  0.000000000000E+000  0.000000000000E+000  0.000000000000E+000  0.000000000000E+000  0.000000000000E+000  0.000000000000E+000  0.000000000000E+000
   -9.668306028038E-006 -7.858490208950E-005  0.000000000000E+000  0.000000000000E+000 -2.840072093401E-002 -3.804062223336E-022  9.034039328217E-022  2.908295753045E-021  0.000000000000E+000  0.000000000000E+000  0.000000000000E+000  0.000000000000E+000  2.840072093401E-002  0.000000000000E+000  0.000000000000E+000  0.000000000000E+000  0.000000000000E+000  0.000000000000E+000 -2.272988179642E-020 -2.272988179642E-020  0.000000000000E+000 -6.696672246567E-021  2.961008324986E-019  2.961008324986E-019  0.000000000000E+000  7.345275569740E-020 -1.446143476448E-018 -1.446143476448E-018  0.000000000000E+000 -7.816391022103E-020
   -2.653913372813E-006 -1.515306280202E-005  0.000000000000E+000  0.000000000000E+000 -1.679154534766E-022 -2.840072093401E-002 -1.057470184493E-021 -3.424241674143E-021  0.000000000000E+000  0.000000000000E+000  0.000000000000E+000  0.000000000000E+000  0.000000000000E+000  2.840072093401E-002  0.000000000000E+000  0.000000000000E+000  0.000000000000E+000  0.000000000000E+000 -1.905482417501E-020 -1.905482417501E-020  0.000000000000E+000 -5.931491961186E-021 -3.402492149964E-019 -3.402492149964E-019  0.000000000000E+000 -8.536862567475E-020  2.948694239521E-019  2.948694239521E-019  0.000000000000E+000  1.611016078064E-020
   -5.478936708372E-005 -3.433914264052E-004  0.000000000000E+000  0.000000000000E+000  3.667531331628E-021  8.237974852428E-021 -3.846401513958E-002  4.769712506595E-020  0.000000000000E+000  0.000000000000E+000  0.000000000000E+000  0.000000000000E+000  0.000000000000E+000  0.000000000000E+000  3.846401513958E-002  0.000000000000E+000  0.000000000000E+000  0.000000000000E+000  4.184104502788E-019  4.184104502788E-019  0.000000000000E+000  1.302593460608E-019  4.733325272429E-018  4.733325272429E-018  0.000000000000E+000  1.188092827782E-018 -1.038975938075E-019 -1.038975938075E-019  0.000000000000E+000 -1.018251138460E-020
   -1.425580442543E-005 -1.201314913374E-004  0.000000000000E+000  0.000000000000E+000 -7.412442268692E-022 -1.666443014888E-021 -2.777732964756E-021 -3.846401513958E-002  0.000000000000E+000  0.000000000000E+000  0.000000000000E+000  0.000000000000E+000  0.000000000000E+000  0.000000000000E+000  0.000000000000E+000  3.846401513958E-002  0.000000000000E+000  0.000000000000E+000 -8.360603602708E-020 -8.360603602708E-020  0.000000000000E+000 -2.615568298183E-020 -8.957873534053E-019 -8.957873534053E-019  0.000000000000E+000 -2.243732417996E-019  2.122173145930E-019  2.122173145930E-019  0.000000000000E+000  1.244090788772E-020
    8.633397543839E-003  4.789533311504E-002  0.000000000000E+000  0.000000000000E+000 -7.243042980473E-020 -1.617385734847E-019 -1.763046235093E-020 -6.021170991181E-020 -7.692307692308E-002  0.000000000000E+000  0.000000000000E+000  0.000000000000E+000  0.000000000000E+000  0.000000000000E+000  0.000000000000E+000  0.000000000000E+000  7.692307692308E-002  0.000000000000E+000 -8.889734924392E-018 -8.889734924392E-018  0.000000000000E+000 -2.684602932605E-018 -4.703247213512E-018 -4.703247213512E-018  0.000000000000E+000 -1.340586675045E-018 -1.378869099290E-016 -1.378869099290E-016  0.000000000000E+000 -7.403509523239E-018
    0.000000000000E+000  0.000000000000E+000  0.000000000000E+000  0.000000000000E+000  0.000000000000E+000  0.000000000000E+000  0.000000000000E+000  0.000000000000E+000  0.000000000000E+000 -7.692307692308E-002  0.000000000000E+000  0.000000000000E+000  0.000000000000E+000  0.000000000000E+000  0.000000000000E+000  0.000000000000E+000  0.000000000000E+000  7.692307692308E-002  0.000000000000E+000  0.000000000000E+000  0.000000000000E+000  0.000000000000E+000  0.000000000000E+000  0.000000000000E+000  0.000000000000E+000  0.000000000000E+000  0.000000000000E+000  0.000000000000E+000  0.000000000000E+000  0.000000000000E+000
    2.512627528143E-020  3.461143045718E-022  0.000000000000E+000  0.000000000000E+000  2.826309704169E-022  6.327623697571E-022  9.717402370792E-022  3.158533412235E-021  0.000000000000E+000  0.000000000000E+000 -1.000000000000E-002  0.000000000000E+000  0.000000000000E+000  0.000000000000E+000  0.000000000000E+000  0.000000000000E+000  0.000000000000E+000  0.000000000000E+000  3.360933764039E-020  3.360933764039E-020  0.000000000000E+000  1.028235118608E-020  3.089698605020E-019  3.089698605020E-019  0.000000000000E+000  7.813246545842E-020  2.996994564705E-019  2.996994564705E-019  0.000000000000E+000  1.591155967089E-020
    0.000000000000E+000  0.000000000000E+000  0.000000000000E+000  0.000000000000E+000  0.000000000000E+000  0.000000000000E+000  0.000000000000E+000  0.000000000000E+000  0.000000000000E+000  0.000000000000E+000  0.000000000000E+000 -1.000000000000E-002  0.000000000000E+000  0.000000000000E+000  0.000000000000E+000  0.000000000000E+000  0.000000000000E+000  0.000000000000E+000  0.000000000000E+000  0.000000000000E+000  0.000000000000E+000  0.000000000000E+000  0.000000000000E+000  0.000000000000E+000  0.000000000000E+000  0.000000000000E+000  0.000000000000E+000  0.000000000000E+000  0.000000000000E+000  0.000000000000E+000
   -2.269497794440E-006 -1.844669184563E-005  0.000000000000E+000  0.000000000000E+000 -4.020377485793E-023 -8.929496853677E-023  2.120612677218E-022  6.826812037161E-022  0.000000000000E+000  0.000000000000E+000  0.000000000000E+000  0.000000000000E+000 -1.000000000000E-002  0.000000000000E+000  0.000000000000E+000  0.000000000000E+000  0.000000000000E+000  0.000000000000E+000 -5.335517561740E-021 -5.335517561740E-021  0.000000000000E+000 -1.571948886351E-021  6.950547327925E-020  6.950547327925E-020  0.000000000000E+000  1.724199322688E-020 -3.394616824007E-019 -3.394616824007E-019  0.000000000000E+000 -1.834786997195E-020
   -6.229685457585E-007 -3.556966702179E-006  0.000000000000E+000  0.000000000000E+000 -3.941577254716E-023 -8.852883467408E-023 -2.482261364539E-022 -8.037921952989E-022  0.000000000000E+000  0.000000000000E+000  0.000000000000E+000  0.000000000000E+000  0.000000000000E+000 -1.000000000000E-002  0.000000000000E+000  0.000000000000E+000  0.000000000000E+000  0.000000000000E+000 -4.472849878067E-021 -4.472849878067E-021  0.000000000000E+000 -1.392333660583E-021 -7.986868027916E-020 -7.986868027916E-020  0.000000000000E+000 -2.003907479980E-020  6.921641757785E-020  6.921641757785E-020  0.000000000000E+000  3.781631886052E-021
   -9.496212132281E-006 -5.951734803886E-005  0.000000000000E+000  0.000000000000E+000  6.356644980716E-022  1.427823698338E-021  2.552280730131E-021  8.266969337940E-021  0.000000000000E+000  0.000000000000E+000  0.000000000000E+000  0.000000000000E+000  0.000000000000E+000  0.000000000000E+000 -1.000000000000E-002  0.000000000000E+000  0.000000000000E+000  0.000000000000E+000  7.251980823469E-020  7.251980823470E-020  0.000000000000E+000  2.257683284633E-020  8.203902193175E-019  8.203902193175E-019  0.000000000000E+000  2.059228300305E-019 -1.800775667516E-020 -1.800775667516E-020  0.000000000000E+000 -1.764854994579E-021
   -2.470846993603E-006 -2.082145106302E-005  0.000000000000E+000  0.000000000000E+000 -1.284740597464E-022 -2.888315236705E-022 -4.814427120477E-022 -1.557795841428E-021  0.000000000000E+000  0.000000000000E+000  0.000000000000E+000  0.000000000000E+000  0.000000000000E+000  0.000000000000E+000  0.000000000000E+000 -1.000000000000E-002  0.000000000000E+000  0.000000000000E+000 -1.449077979746E-020 -1.449077979746E-020  0.000000000000E+000 -4.533359797361E-021 -1.552598101809E-019 -1.552598101809E-019  0.000000000000E+000 -3.888885771725E-020  3.678196600517E-020  3.678196600517E-020  0.000000000000E+000  2.156285182843E-021
    7.482277871327E-004  4.150928869970E-003  0.000000000000E+000  0.000000000000E+000 -6.277303916410E-021 -1.401734303534E-020 -1.527973403747E-021 -5.218348192357E-021  0.000000000000E+000  0.000000000000E+000  0.000000000000E+000  0.000000000000E+000  0.000000000000E+000  0.000000000000E+000  0.000000000000E+000  0.000000000000E+000 -1.000000000000E-002  0.000000000000E+000 -7.704436934473E-019 -7.704436934473E-019  0.000000000000E+000 -2.326655874925E-019 -4.076147585044E-019 -4.076147585044E-019  0.000000000000E+000 -1.161841785039E-019 -1.195019886051E-017 -1.195019886051E-017  0.000000000000E+000 -6.416374920140E-019
    0.000000000000E+000  0.000000000000E+000  0.000000000000E+000  0.000000000000E+000  0.000000000000E+000  0.000000000000E+000  0.000000000000E+000  0.000000000000E+000  0.000000000000E+000  0.000000000000E+000  0.000000000000E+000  0.000000000000E+000  0.000000000000E+000  0.000000000000E+000  0.000000000000E+000  0.000000000000E+000  0.000000000000E+000 -1.000000000000E-002  0.000000000000E+000  0.000000000000E+000  0.000000000000E+000  0.000000000000E+000  0.000000000000E+000  0.000000000000E+000  0.000000000000E+000  0.000000000000E+000  0.000000000000E+000  0.000000000000E+000  0.000000000000E+000  0.000000000000E+000