
Linearized model: Predictions were generated on 13-Sep-2024 at 18:19:15 using OpenFAST, compiled on Sep 13 2024 at 17:02:28 as a 64-bit application using double precision at commit HEAD-HASH-NOTFOUND
 linked with  NWTC Subroutine Library; ElastoDyn; InflowWind; AeroDyn

Description from the FAST input file: One blade, 4 aero-stations, Linearization with continuous-state aerodynamic modules

Simulation information:
   Simulation time:                     1.1000 s
   Rotor Speed:                         1.2671 rad/s
   Azimuth:                             1.3938 rad
   Wind Speed:                         13.0000 m/s
   Number of continuous states:        30
   Number of discrete states:           0
   Number of constraint states:         0
   Number of inputs:                   14
   Number of outputs:                  31
   Jacobians included in this file?    No

Order of continuous states:
   Row/Column Operating Point                                                   Rotating Frame? Derivative Order Description
   ---------- ---------------                                                   --------------- ---------------- -----------
          1    6.242703524074E+000                                                     T               2         ED 1st flapwise bending-mode DOF of blade 1 (internal DOF index = DOF_BF(1,1)), m
          2   -1.001124195282E+001                                                     T               2         ED First time derivative of 1st flapwise bending-mode DOF of blade 1 (internal DOF index = DOF_BF(1,1)), m/s
          3   -1.303013002991E+001                                                     T               2         AD vind (axial) at blade 1, node 1, m/s
          4    0.000000000000E+000                                                     T               2         AD vind (tangential) at blade 1, node 1, m/s
          5   -8.932151726946E-001                                                     T               2         AD vind (axial) at blade 1, node 2, m/s
          6    3.691072118892E-001                                                     T               2         AD vind (tangential) at blade 1, node 2, m/s
          7   -1.265421493514E+000                                                     T               2         AD vind (axial) at blade 1, node 3, m/s
          8    2.846798286406E-001                                                     T               2         AD vind (tangential) at blade 1, node 3, m/s
          9   -1.411109167001E+001                                                     T               2         AD vind (axial) at blade 1, node 4, m/s
         10    0.000000000000E+000                                                     T               2         AD vind (tangential) at blade 1, node 4, m/s
         11   -5.212116040265E+000                                                     T               2         AD First time derivative of vind (axial) at blade 1, node 1, m/s/s
         12    0.000000000000E+000                                                     T               2         AD First time derivative of vind (tangential) at blade 1, node 1, m/s/s
         13   -3.570816651725E-001                                                     T               2         AD First time derivative of vind (axial) at blade 1, node 2, m/s/s
         14    1.476643219155E-001                                                     T               2         AD First time derivative of vind (tangential) at blade 1, node 2, m/s/s
         15   -5.061856216268E-001                                                     T               2         AD First time derivative of vind (axial) at blade 1, node 3, m/s/s
         16    1.142655880963E-001                                                     T               2         AD First time derivative of vind (tangential) at blade 1, node 3, m/s/s
         17   -5.749229755707E+000                                                     T               2         AD First time derivative of vind (axial) at blade 1, node 4, m/s/s
         18    0.000000000000E+000                                                     T               2         AD First time derivative of vind (tangential) at blade 1, node 4, m/s/s
         19    6.457027078395E-002                                                     T               1         AD x1 blade 1, node 2, rad
         20    1.590302895744E-001                                                     T               1         AD x2 blade 1, node 2, rad
         21    2.273912780619E+000                                                     T               1         AD x3 blade 1, node 2, -
         22    3.775991160346E-001                                                     T               1         AD x4 blade 1, node 2, -
         23    5.502534195065E-002                                                     T               1         AD x1 blade 1, node 3, rad
         24    1.487209894544E-001                                                     T               1         AD x2 blade 1, node 3, rad
         25    2.116023400009E+000                                                     T               1         AD x3 blade 1, node 3, -
         26    4.530786304963E-001                                                     T               1         AD x4 blade 1, node 3, -
         27   -9.112852665224E-004                                                     T               1         AD x1 blade 1, node 4, rad
         28   -1.940542833558E-003                                                     T               1         AD x2 blade 1, node 4, rad
         29    5.788735167351E-001                                                     T               1         AD x3 blade 1, node 4, -
         30    5.201152523924E-001                                                     T               1         AD x4 blade 1, node 4, -

Order of continuous state derivatives:
   Row/Column Operating Point                                                   Rotating Frame? Derivative Order Description
   ---------- ---------------                                                   --------------- ---------------- -----------
          1   -1.001124195282E+001                                                     T               2         First time derivative of ED 1st flapwise bending-mode DOF of blade 1 (internal DOF index = DOF_BF(1,1)), m/s
          2   -6.282750035587E+000                                                     T               2         First time derivative of ED First time derivative of 1st flapwise bending-mode DOF of blade 1 (internal DOF index = DOF_BF(1,1)), m/s/s
          3    1.160448901599E-003                                                     T               2         First time derivative of AD vind (axial) at blade 1, node 1, m/s/s
          4    0.000000000000E+000                                                     T               2         First time derivative of AD vind (tangential) at blade 1, node 1, m/s/s
          5   -6.153017135686E-004                                                     T               2         First time derivative of AD vind (axial) at blade 1, node 2, m/s/s
          6    1.569095377754E-004                                                     T               2         First time derivative of AD vind (tangential) at blade 1, node 2, m/s/s
          7    1.722779194102E-003                                                     T               2         First time derivative of AD vind (axial) at blade 1, node 3, m/s/s
          8    1.076022222185E-003                                                     T               2         First time derivative of AD vind (tangential) at blade 1, node 3, m/s/s
          9   -4.148515628133E-001                                                     T               2         First time derivative of AD vind (axial) at blade 1, node 4, m/s/s
         10    0.000000000000E+000                                                     T               2         First time derivative of AD vind (tangential) at blade 1, node 4, m/s/s
         11    3.026698257929E-004                                                     T               2         First time derivative of AD First time derivative of vind (axial) at blade 1, node 1, m/s/s/s
         12    0.000000000000E+000                                                     T               2         First time derivative of AD First time derivative of vind (tangential) at blade 1, node 1, m/s/s/s
         13   -1.478400872795E-004                                                     T               2         First time derivative of AD First time derivative of vind (axial) at blade 1, node 2, m/s/s/s
         14    3.647500384420E-005                                                     T               2         First time derivative of AD First time derivative of vind (tangential) at blade 1, node 2, m/s/s/s
         15    2.988795696635E-004                                                     T               2         First time derivative of AD First time derivative of vind (axial) at blade 1, node 3, m/s/s/s
         16    1.799375651945E-004                                                     T               2         First time derivative of AD First time derivative of vind (tangential) at blade 1, node 3, m/s/s/s
         17   -3.420725064874E-002                                                     T               2         First time derivative of AD First time derivative of vind (axial) at blade 1, node 4, m/s/s/s
         18    0.000000000000E+000                                                     T               2         First time derivative of AD First time derivative of vind (tangential) at blade 1, node 4, m/s/s/s
         19    1.077379045928E-002                                                     T               1         First time derivative of AD x1 blade 1, node 2, rad/s
         20    2.355936276069E-002                                                     T               1         First time derivative of AD x2 blade 1, node 2, rad/s
         21    3.888970068337E-001                                                     T               1         First time derivative of AD x3 blade 1, node 2, -/s
         22   -1.358353970369E-001                                                     T               1         First time derivative of AD x4 blade 1, node 2, -/s
         23    5.557402047715E-002                                                     T               1         First time derivative of AD x1 blade 1, node 3, rad/s
         24    6.688357642027E-002                                                     T               1         First time derivative of AD x2 blade 1, node 3, rad/s
         25    1.231372374057E+000                                                     T               1         First time derivative of AD x3 blade 1, node 3, -/s
         26   -5.735885906549E-001                                                     T               1         First time derivative of AD x4 blade 1, node 3, -/s
         27    1.702065308523E-003                                                     T               1         First time derivative of AD x1 blade 1, node 4, rad/s
         28    4.042922985939E-003                                                     T               1         First time derivative of AD x2 blade 1, node 4, rad/s
         29    3.108360419643E-002                                                     T               1         First time derivative of AD x3 blade 1, node 4, -/s
         30    1.205527229847E-002                                                     T               1         First time derivative of AD x4 blade 1, node 4, -/s

Order of inputs:
     Column   Operating Point                                                   Rotating Frame? Derivative Order Description
   ---------- ---------------                                                   --------------- ---------------- -----------
          1    1.300000000000E+001                                                     F               0         IfW Extended input: horizontal wind speed (steady/uniform wind) (hub), m/s
          2    2.000000000000E-001                                                     F               0         IfW Extended input: vertical power-law shear exponent (hub), -
          3    0.000000000000E+000                                                     F               0         IfW Extended input: propagation direction (hub), rad
          4    0.000000000000E+000                                                     T               0         ED Blade 1 pitch command, rad
          5    0.000000000000E+000                                                     F               0         ED Yaw moment, Nm
          6    0.000000000000E+000                                                     F               0         ED Generator torque, Nm
          7    0.000000000000E+000                                                     F               0         ED Extended input: collective blade-pitch command, rad
          8    0.000000000000E+000                                                     T               0         AD User property on blade 1, node 1, -
          9    0.000000000000E+000                                                     T               0         AD User property on blade 1, node 2, -
         10    0.000000000000E+000                                                     T               0         AD User property on blade 1, node 3, -
         11    0.000000000000E+000                                                     T               0         AD User property on blade 1, node 4, -
         12    1.300000000000E+001                                                     F               0         AD Extended input: horizontal wind speed (steady/uniform wind), m/s
         13    2.000000000000E-001                                                     F               0         AD Extended input: vertical power-law shear exponent, -
         14    0.000000000000E+000                                                     F               0         AD Extended input: propagation direction, rad

Order of outputs:
        Row   Operating Point                                                   Rotating Frame? Derivative Order Description
   ---------- ---------------                                                   --------------- ---------------- -----------
          1    1.300000000000E+001                                                     F               0         IfW Wind1VelX, (m/s)
          2   -0.000000000000E+000                                                     F               0         IfW Wind1VelY, (m/s)
          3    0.000000000000E+000                                                     F               0         IfW Wind1VelZ, (m/s)
          4    3.203207746202E+002                                                     F               0         ED TwrBsFxt, (kN)
          5    3.176784617970E+004                                                     F               0         ED TwrBsMyt, (kN-m)
          6    6.242703524074E+000                                                     F               0         ED Q_B1F1, (m)
          7    8.790291605247E-002                                                     F               0         AD RtAeroCp, (-)
          8    1.386440319181E-001                                                     F               0         AD RtAeroCt, (-)
          9    1.511353171743E+000                                                     T               0         AD B1N1Cl, (-)
         10    7.502513481158E-002                                                     T               0         AD B1N1AxInd, (-)
         11    5.011489224170E-003                                                     T               0         AD B1N1TnInd, (-)
         12    0.000000000000E+000                                                     T               0         AD AB1N001UA_Flag, (-)
         13    1.000000000000E+000                                                     T               0         AD AB1N002UA_Flag, (-)
         14    1.000000000000E+000                                                     T               0         AD AB1N003UA_Flag, (-)
         15    1.000000000000E+000                                                     T               0         AD AB1N004UA_Flag, (-)
         16    0.000000000000E+000                                                     T               0         AD AB1N001UA_x1, (rad)
         17    6.457027078395E-002                                                     T               0         AD AB1N002UA_x1, (rad)
         18    5.502534195065E-002                                                     T               0         AD AB1N003UA_x1, (rad)
         19   -9.112852665224E-004                                                     T               0         AD AB1N004UA_x1, (rad)
         20    0.000000000000E+000                                                     T               0         AD AB1N001UA_x2, (rad)
         21    1.590302895744E-001                                                     T               0         AD AB1N002UA_x2, (rad)
         22    1.487209894544E-001                                                     T               0         AD AB1N003UA_x2, (rad)
         23   -1.940542833558E-003                                                     T               0         AD AB1N004UA_x2, (rad)
         24    0.000000000000E+000                                                     T               0         AD AB1N001UA_x3, (-)
         25    2.273912780619E+000                                                     T               0         AD AB1N002UA_x3, (-)
         26    2.116023400009E+000                                                     T               0         AD AB1N003UA_x3, (-)
         27    5.788735167351E-001                                                     T               0         AD AB1N004UA_x3, (-)
         28    0.000000000000E+000                                                     T               0         AD AB1N001UA_x4, (-)
         29    3.775991160346E-001                                                     T               0         AD AB1N002UA_x4, (-)
         30    4.530786304963E-001                                                     T               0         AD AB1N003UA_x4, (-)
         31    5.201152523924E-001                                                     T               0         AD AB1N004UA_x4, (-)


Linearized state matrices:

A: 30 x 30
    0.000000000000E+000  1.000000000000E+000  0.000000000000E+000  0.000000000000E+000  0.000000000000E+000  0.000000000000E+000  0.000000000000E+000  0.000000000000E+000  0.000000000000E+000  0.000000000000E+000  0.000000000000E+000  0.000000000000E+000  0.000000000000E+000  0.000000000000E+000  0.000000000000E+000  0.000000000000E+000  0.000000000000E+000  0.000000000000E+000  0.000000000000E+000  0.000000000000E+000  0.000000000000E+000  0.000000000000E+000  0.000000000000E+000  0.000000000000E+000  0.000000000000E+000  0.000000000000E+000  0.000000000000E+000  0.000000000000E+000  0.000000000000E+000  0.000000000000E+000
   -1.600534671644E+001 -4.945835628406E-002  0.000000000000E+000  0.000000000000E+000  1.862487467096E-001  4.170826898304E-001  6.221089893798E-001  2.022234859882E+000  0.000000000000E+000  0.000000000000E+000  0.000000000000E+000  0.000000000000E+000  0.000000000000E+000  0.000000000000E+000  0.000000000000E+000  0.000000000000E+000  0.000000000000E+000  0.000000000000E+000  2.217466806617E+001  2.217466806617E+001  0.000000000000E+000  6.750351755396E+000  1.989627931683E+002  1.989627931683E+002  0.000000000000E+000  4.979443071211E+001  1.771281177532E+002  1.771281177532E+002  0.000000000000E+000  9.402360618935E+000
    1.791347074850E-020  7.997127497370E-022 -2.565071974878E-002  0.000000000000E+000 -4.878905439087E-023 -1.094246765483E-022 -2.256275542352E-022 -7.397401119905E-022  0.000000000000E+000  0.000000000000E+000  2.565071974878E-002  0.000000000000E+000  0.000000000000E+000  0.000000000000E+000  0.000000000000E+000  0.000000000000E+000  0.000000000000E+000  0.000000000000E+000 -5.690600311357E-021 -5.690600311357E-021  0.000000000000E+000 -1.745852575101E-021 -7.019494542734E-020 -7.019494542734E-020  0.000000000000E+000 -1.788811915630E-020 -2.988126404918E-020 -2.988126404918E-020  0.000000000000E+000 -1.568180443465E-021
    0.000000000000E+000  0.000000000000E+000  0.000000000000E+000 -2.565071974878E-002  0.000000000000E+000  0.000000000000E+000  0.000000000000E+000  0.000000000000E+000  0.000000000000E+000  0.000000000000E+000  0.000000000000E+000  2.565071974878E-002  0.000000000000E+000  0.000000000000E+000  0.000000000000E+000  0.000000000000E+000  0.000000000000E+000  0.000000000000E+000  0.000000000000E+000  0.000000000000E+000  0.000000000000E+000  0.000000000000E+000  0.000000000000E+000  0.000000000000E+000  0.000000000000E+000  0.000000000000E+000  0.000000000000E+000  0.000000000000E+000  0.000000000000E+000  0.000000000000E+000
   -9.738705929795E-006 -7.854404492673E-005  0.000000000000E+000  0.000000000000E+000 -2.840072093401E-002 -7.350099829463E-021 -1.159845624462E-020 -3.775579727162E-020  0.000000000000E+000  0.000000000000E+000  0.000000000000E+000  0.000000000000E+000  2.840072093401E-002  0.000000000000E+000  0.000000000000E+000  0.000000000000E+000  0.000000000000E+000  0.000000000000E+000 -3.920595039427E-019 -3.920595039427E-019  0.000000000000E+000 -1.190855507901E-019 -3.693759314557E-018 -3.693759314557E-018  0.000000000000E+000 -9.274691361074E-019 -4.143873437971E-018 -4.143873437971E-018  0.000000000000E+000 -2.223436547863E-019
   -2.627303335274E-006 -1.517254620161E-005  0.000000000000E+000  0.000000000000E+000  1.190758693594E-021 -2.840072093401E-002  4.213623886173E-021  1.371693200977E-020  0.000000000000E+000  0.000000000000E+000  0.000000000000E+000  0.000000000000E+000  0.000000000000E+000  2.840072093401E-002  0.000000000000E+000  0.000000000000E+000  0.000000000000E+000  0.000000000000E+000  1.421871659276E-019  1.421871659276E-019  0.000000000000E+000  4.318822420429E-020  1.341713261326E-018  1.341713261326E-018  0.000000000000E+000  3.369135408764E-019  1.512261531368E-018  1.512261531368E-018  0.000000000000E+000  8.115662864925E-020
   -5.462354849425E-005 -3.434428082499E-004  0.000000000000E+000  0.000000000000E+000 -1.042561658415E-020 -2.333801224440E-020 -3.846401513958E-002 -1.315065398508E-019  0.000000000000E+000  0.000000000000E+000  0.000000000000E+000  0.000000000000E+000  0.000000000000E+000  0.000000000000E+000  3.846401513958E-002  0.000000000000E+000  0.000000000000E+000  0.000000000000E+000 -1.244625981440E-018 -1.244625981440E-018  0.000000000000E+000 -3.781272719987E-019 -1.284355290553E-017 -1.284355290553E-017  0.000000000000E+000 -3.226852974815E-018 -1.370896438008E-017 -1.370896438008E-017  0.000000000000E+000 -7.358865805459E-019
   -1.428326516357E-005 -1.201718545472E-004  0.000000000000E+000  0.000000000000E+000  3.088914018820E-021  6.915124789995E-021  1.119264140630E-020 -3.846401513958E-002  0.000000000000E+000  0.000000000000E+000  0.000000000000E+000  0.000000000000E+000  0.000000000000E+000  0.000000000000E+000  0.000000000000E+000  3.846401513958E-002  0.000000000000E+000  0.000000000000E+000  3.685545363727E-019  3.685545363727E-019  0.000000000000E+000  1.120127730848E-019  3.563893809867E-018  3.563893809867E-018  0.000000000000E+000  8.947264180443E-019  3.797165750760E-018  3.797165750760E-018  0.000000000000E+000  2.035063685455E-019
    8.621372394379E-003  4.789508187853E-002  0.000000000000E+000  0.000000000000E+000 -2.032914944928E-019 -4.551559465782E-019 -4.643611863107E-019 -1.512182720780E-018 -7.692307692308E-002  0.000000000000E+000  0.000000000000E+000  0.000000000000E+000  0.000000000000E+000  0.000000000000E+000  0.000000000000E+000  0.000000000000E+000  7.692307692308E-002  0.000000000000E+000 -2.422534682975E-017 -2.422534682975E-017  0.000000000000E+000 -7.366681508892E-018 -1.477843486280E-016 -1.477843486280E-016  0.000000000000E+000 -3.715882811741E-017 -1.286005623305E-016 -1.286005623305E-016  0.000000000000E+000 -6.877210802347E-018
    0.000000000000E+000  0.000000000000E+000  0.000000000000E+000  0.000000000000E+000  0.000000000000E+000  0.000000000000E+000  0.000000000000E+000  0.000000000000E+000  0.000000000000E+000 -7.692307692308E-002  0.000000000000E+000  0.000000000000E+000  0.000000000000E+000  0.000000000000E+000  0.000000000000E+000  0.000000000000E+000  0.000000000000E+000  7.692307692308E-002  0.000000000000E+000  0.000000000000E+000  0.000000000000E+000  0.000000000000E+000  0.000000000000E+000  0.000000000000E+000  0.000000000000E+000  0.000000000000E+000  0.000000000000E+000  0.000000000000E+000  0.000000000000E+000  0.000000000000E+000
    4.655742197215E-021  2.078467342749E-022  0.000000000000E+000  0.000000000000E+000 -1.268036007539E-023 -2.843966371328E-023 -5.864099368902E-023 -1.922597414389E-022  0.000000000000E+000  0.000000000000E+000 -1.000000000000E-002  0.000000000000E+000  0.000000000000E+000  0.000000000000E+000  0.000000000000E+000  0.000000000000E+000  0.000000000000E+000  0.000000000000E+000 -1.478996916297E-021 -1.478996916297E-021  0.000000000000E+000 -4.537501201289E-022 -1.824378837841E-020 -1.824378837841E-020  0.000000000000E+000 -4.649153274337E-021 -7.766192486892E-021 -7.766192486892E-021  0.000000000000E+000 -4.075728241645E-022
    0.000000000000E+000  0.000000000000E+000  0.000000000000E+000  0.000000000000E+000  0.000000000000E+000  0.000000000000E+000  0.000000000000E+000  0.000000000000E+000  0.000000000000E+000  0.000000000000E+000  0.000000000000E+000 -1.000000000000E-002  0.000000000000E+000  0.000000000000E+000  0.000000000000E+000  0.000000000000E+000  0.000000000000E+000  0.000000000000E+000  0.000000000000E+000  0.000000000000E+000  0.000000000000E+000  0.000000000000E+000  0.000000000000E+000  0.000000000000E+000  0.000000000000E+000  0.000000000000E+000  0.000000000000E+000  0.000000000000E+000  0.000000000000E+000  0.000000000000E+000
   -2.286023173478E-006 -1.843710120581E-005  0.000000000000E+000  0.000000000000E+000 -7.707752559402E-022 -1.725331749275E-021 -2.722573198423E-021 -8.862638231225E-021  0.000000000000E+000  0.000000000000E+000  0.000000000000E+000  0.000000000000E+000 -1.000000000000E-002  0.000000000000E+000  0.000000000000E+000  0.000000000000E+000  0.000000000000E+000  0.000000000000E+000 -9.203041121236E-020 -9.203041121236E-020  0.000000000000E+000 -2.795364504227E-020 -8.670576410458E-019 -8.670576410458E-019  0.000000000000E+000 -2.177102330753E-019 -9.727155512704E-019 -9.727155512704E-019  0.000000000000E+000 -5.219202129948E-020
   -6.167222166363E-007 -3.561540154060E-006  0.000000000000E+000  0.000000000000E+000  2.795137246366E-022  6.256729286594E-022  9.890884802920E-022  3.219855355465E-021  0.000000000000E+000  0.000000000000E+000  0.000000000000E+000  0.000000000000E+000  0.000000000000E+000 -1.000000000000E-002  0.000000000000E+000  0.000000000000E+000  0.000000000000E+000  0.000000000000E+000  3.337642173661E-020  3.337642173661E-020  0.000000000000E+000  1.013782345048E-020  3.149481696711E-019  3.149481696711E-019  0.000000000000E+000  7.908567806176E-020  3.549819585875E-019  3.549819585875E-019  0.000000000000E+000  1.905036820199E-020
   -9.467472094116E-006 -5.952625365182E-005  0.000000000000E+000  0.000000000000E+000 -1.806990515908E-021 -4.044994983788E-021 -6.999311265677E-021 -2.279299918353E-020  0.000000000000E+000  0.000000000000E+000  0.000000000000E+000  0.000000000000E+000  0.000000000000E+000  0.000000000000E+000 -1.000000000000E-002  0.000000000000E+000  0.000000000000E+000  0.000000000000E+000 -2.157212790402E-019 -2.157212790402E-019  0.000000000000E+000 -6.553784026040E-020 -2.226072492072E-018 -2.226072492072E-018  0.000000000000E+000 -5.592851678996E-019 -2.376067488938E-018 -2.376067488938E-018  0.000000000000E+000 -1.275454608462E-019
   -2.475606548395E-006 -2.082844690222E-005  0.000000000000E+000  0.000000000000E+000  5.353772883756E-022  1.198544451639E-021  1.939932924437E-021  6.315007949711E-021  0.000000000000E+000  0.000000000000E+000  0.000000000000E+000  0.000000000000E+000  0.000000000000E+000  0.000000000000E+000  0.000000000000E+000 -1.000000000000E-002  0.000000000000E+000  0.000000000000E+000  6.387867292502E-020  6.387867292502E-020  0.000000000000E+000  1.941429717764E-020  6.177018176486E-019  6.177018176486E-019  0.000000000000E+000  1.550759265593E-019  6.581330172250E-019  6.581330172250E-019  0.000000000000E+000  3.527216591178E-020
    7.471856075128E-004  4.150907096140E-003  0.000000000000E+000  0.000000000000E+000 -1.761859618938E-020 -3.944684870344E-020 -4.024463614693E-020 -1.310558358010E-019  0.000000000000E+000  0.000000000000E+000  0.000000000000E+000  0.000000000000E+000  0.000000000000E+000  0.000000000000E+000  0.000000000000E+000  0.000000000000E+000 -1.000000000000E-002  0.000000000000E+000 -2.099530058579E-018 -2.099530058579E-018  0.000000000000E+000 -6.384457307707E-019 -1.280797688110E-017 -1.280797688110E-017  0.000000000000E+000 -3.220431770176E-018 -1.114538206864E-017 -1.114538206864E-017  0.000000000000E+000 -5.960249362034E-019