
Linearized model: Predictions were generated on 23-Aug-2023 at 18:11:14 using OpenFAST, compiled on Aug 23 2023 at 17:49:47 as a 64-bit application using double precision at commit -128-NOTFOUND
 linked with  NWTC Subroutine Library; ElastoDyn; InflowWind; AeroDyn

Description from the FAST input file: One Blade, 4 aero-stations, Linearization with continuous States AeroDynamic modules

Simulation information:
   Simulation time:                     1.1000 s
   Rotor Speed:                         1.2671 rad/s
   Azimuth:                             1.3938 rad
   Wind Speed:                         13.0000 m/s
   Number of continuous states:        28
   Number of discrete states:           0
   Number of constraint states:         0
   Number of inputs:                    4
   Number of outputs:                  25
   Jacobians included in this file?    No

Order of continuous states:
   Row/Column Operating Point                                                   Rotating Frame? Derivative Order Description
   ---------- ---------------                                                   --------------- ---------------- -----------
          1   -1.303013675326E+001                                                     T               2         vind (axial) at blade 1, node 1, m/s
          2    0.000000000000E+000                                                     T               2         vind (tangential) at blade 1, node 1, m/s
          3   -8.932063693174E-001                                                     T               2         vind (axial) at blade 1, node 2, m/s
          4    3.691117474564E-001                                                     T               2         vind (tangential) at blade 1, node 2, m/s
          5   -1.265428154636E+000                                                     T               2         vind (axial) at blade 1, node 3, m/s
          6    2.846961877434E-001                                                     T               2         vind (tangential) at blade 1, node 3, m/s
          7   -1.411520328671E+001                                                     T               2         vind (axial) at blade 1, node 4, m/s
          8    0.000000000000E+000                                                     T               2         vind (tangential) at blade 1, node 4, m/s
          9   -5.212118268916E+000                                                     T               2         First time derivative of vind (axial) at blade 1, node 1, m/s/s
         10    0.000000000000E+000                                                     T               2         First time derivative of vind (tangential) at blade 1, node 1, m/s/s
         11   -3.570780418522E-001                                                     T               2         First time derivative of vind (axial) at blade 1, node 2, m/s/s
         12    1.476657475889E-001                                                     T               2         First time derivative of vind (tangential) at blade 1, node 2, m/s/s
         13   -5.061862212345E-001                                                     T               2         First time derivative of vind (axial) at blade 1, node 3, m/s/s
         14    1.142691158356E-001                                                     T               2         First time derivative of vind (tangential) at blade 1, node 3, m/s/s
         15   -5.749611780548E+000                                                     T               2         First time derivative of vind (axial) at blade 1, node 4, m/s/s
         16    0.000000000000E+000                                                     T               2         First time derivative of vind (tangential) at blade 1, node 4, m/s/s
         17    6.474575633533E-002                                                     T               1         x1 blade 1, node 2, rad
         18    1.593840338610E-001                                                     T               1         x2 blade 1, node 2, rad
         19    2.279600107027E+000                                                     T               1         x3 blade 1, node 2, -
         20    3.754631058571E-001                                                     T               1         x4 blade 1, node 2, -
         21    5.550632374884E-002                                                     T               1         x1 blade 1, node 3, rad
         22    1.491542330370E-001                                                     T               1         x2 blade 1, node 3, rad
         23    2.125962675145E+000                                                     T               1         x3 blade 1, node 3, -
         24    4.481163280746E-001                                                     T               1         x4 blade 1, node 3, -
         25   -9.113015095055E-004                                                     T               1         x1 blade 1, node 4, rad
         26   -1.941070049926E-003                                                     T               1         x2 blade 1, node 4, rad
         27    5.788725264974E-001                                                     T               1         x3 blade 1, node 4, -
         28    5.201146159078E-001                                                     T               1         x4 blade 1, node 4, -

Order of continuous state derivatives:
   Row/Column Operating Point                                                   Rotating Frame? Derivative Order Description
   ---------- ---------------                                                   --------------- ---------------- -----------
          1    1.160564194006E-003                                                     T               2         First time derivative of vind (axial) at blade 1, node 1, m/s/s
          2    0.000000000000E+000                                                     T               2         First time derivative of vind (tangential) at blade 1, node 1, m/s/s
          3   -6.145283109761E-004                                                     T               2         First time derivative of vind (axial) at blade 1, node 2, m/s/s
          4    1.569585796914E-004                                                     T               2         First time derivative of vind (tangential) at blade 1, node 2, m/s/s
          5    1.726746073703E-003                                                     T               2         First time derivative of vind (axial) at blade 1, node 3, m/s/s
          6    1.076821676499E-003                                                     T               2         First time derivative of vind (tangential) at blade 1, node 3, m/s/s
          7   -4.150787324253E-001                                                     T               2         First time derivative of vind (axial) at blade 1, node 4, m/s/s
          8    0.000000000000E+000                                                     T               2         First time derivative of vind (tangential) at blade 1, node 4, m/s/s
          9    3.026921122998E-004                                                     T               2         First time derivative of First time derivative of vind (axial) at blade 1, node 1, m/s/s/s
         10    0.000000000000E+000                                                     T               2         First time derivative of First time derivative of vind (tangential) at blade 1, node 1, m/s/s/s
         11   -1.476602414734E-004                                                     T               2         First time derivative of First time derivative of vind (axial) at blade 1, node 2, m/s/s/s
         12    3.649299163198E-005                                                     T               2         First time derivative of First time derivative of vind (tangential) at blade 1, node 2, m/s/s/s
         13    2.995327038329E-004                                                     T               2         First time derivative of First time derivative of vind (axial) at blade 1, node 3, m/s/s/s
         14    1.801263933832E-004                                                     T               2         First time derivative of First time derivative of vind (tangential) at blade 1, node 3, m/s/s/s
         15   -3.424798237915E-002                                                     T               2         First time derivative of First time derivative of vind (axial) at blade 1, node 4, m/s/s/s
         16    0.000000000000E+000                                                     T               2         First time derivative of First time derivative of vind (tangential) at blade 1, node 4, m/s/s/s
         17    1.039582312750E-002                                                     T               1         First time derivative of x1 blade 1, node 2, rad/s
         18    2.069725516257E-002                                                     T               1         First time derivative of x2 blade 1, node 2, rad/s
         19    3.735186658221E-001                                                     T               1         First time derivative of x3 blade 1, node 2, -/s
         20   -1.343410996796E-001                                                     T               1         First time derivative of x4 blade 1, node 2, -/s
         21    5.305104635307E-002                                                     T               1         First time derivative of x1 blade 1, node 3, rad/s
         22    5.896690266071E-002                                                     T               1         First time derivative of x2 blade 1, node 3, rad/s
         23    1.163887563659E+000                                                     T               1         First time derivative of x3 blade 1, node 3, -/s
         24   -5.597068774887E-001                                                     T               1         First time derivative of x4 blade 1, node 3, -/s
         25    1.697605649780E-003                                                     T               1         First time derivative of x1 blade 1, node 4, rad/s
         26    4.032726348714E-003                                                     T               1         First time derivative of x2 blade 1, node 4, rad/s
         27    3.103318421552E-002                                                     T               1         First time derivative of x3 blade 1, node 4, -/s
         28    1.203294011644E-002                                                     T               1         First time derivative of x4 blade 1, node 4, -/s

Order of inputs:
     Column   Operating Point                                                   Rotating Frame? Derivative Order Description
   ---------- ---------------                                                   --------------- ---------------- -----------
          1    0.000000000000E+000                                                     T               0         User property on blade 1, node 1, -
          2    0.000000000000E+000                                                     T               0         User property on blade 1, node 2, -
          3    0.000000000000E+000                                                     T               0         User property on blade 1, node 3, -
          4    0.000000000000E+000                                                     T               0         User property on blade 1, node 4, -

Order of outputs:
        Row   Operating Point                                                   Rotating Frame? Derivative Order Description
   ---------- ---------------                                                   --------------- ---------------- -----------
          1    8.778806155890E-002                                                     F               0         RtAeroCp, (-)
          2    1.384706475422E-001                                                     F               0         RtAeroCt, (-)
          3    1.509771664417E+000                                                     T               0         B1N1Cl, (-)
          4    7.500526646744E-002                                                     T               0         B1N1AxInd, (-)
          5    5.011850392005E-003                                                     T               0         B1N1TnInd, (-)
          6    0.000000000000E+000                                                     T               0         AB1N001UA_Flag, (-)
          7    1.000000000000E+000                                                     T               0         AB1N002UA_Flag, (-)
          8    1.000000000000E+000                                                     T               0         AB1N003UA_Flag, (-)
          9    1.000000000000E+000                                                     T               0         AB1N004UA_Flag, (-)
         10    0.000000000000E+000                                                     T               0         AB1N001UA_x1, (rad)
         11    6.474575633533E-002                                                     T               0         AB1N002UA_x1, (rad)
         12    5.550632374884E-002                                                     T               0         AB1N003UA_x1, (rad)
         13   -9.113015095055E-004                                                     T               0         AB1N004UA_x1, (rad)
         14    0.000000000000E+000                                                     T               0         AB1N001UA_x2, (rad)
         15    1.593840338610E-001                                                     T               0         AB1N002UA_x2, (rad)
         16    1.491542330370E-001                                                     T               0         AB1N003UA_x2, (rad)
         17   -1.941070049926E-003                                                     T               0         AB1N004UA_x2, (rad)
         18    0.000000000000E+000                                                     T               0         AB1N001UA_x3, (-)
         19    2.279600107027E+000                                                     T               0         AB1N002UA_x3, (-)
         20    2.125962675145E+000                                                     T               0         AB1N003UA_x3, (-)
         21    5.788725264974E-001                                                     T               0         AB1N004UA_x3, (-)
         22    0.000000000000E+000                                                     T               0         AB1N001UA_x4, (-)
         23    3.754631058571E-001                                                     T               0         AB1N002UA_x4, (-)
         24    4.481163280746E-001                                                     T               0         AB1N003UA_x4, (-)
         25    5.201146159078E-001                                                     T               0         AB1N004UA_x4, (-)


Linearized state matrices:

A: 28 x 28
   -2.565071974878E-002  0.000000000000E+000  0.000000000000E+000  0.000000000000E+000  0.000000000000E+000  0.000000000000E+000  0.000000000000E+000  0.000000000000E+000  2.565071974878E-002  0.000000000000E+000  0.000000000000E+000  0.000000000000E+000  0.000000000000E+000  0.000000000000E+000  0.000000000000E+000  0.000000000000E+000  0.000000000000E+000  0.000000000000E+000  0.000000000000E+000  0.000000000000E+000  0.000000000000E+000  0.000000000000E+000  0.000000000000E+000  0.000000000000E+000  0.000000000000E+000  0.000000000000E+000  0.000000000000E+000  0.000000000000E+000
    0.000000000000E+000 -2.565071974878E-002  0.000000000000E+000  0.000000000000E+000  0.000000000000E+000  0.000000000000E+000  0.000000000000E+000  0.000000000000E+000  0.000000000000E+000  2.565071974878E-002  0.000000000000E+000  0.000000000000E+000  0.000000000000E+000  0.000000000000E+000  0.000000000000E+000  0.000000000000E+000  0.000000000000E+000  0.000000000000E+000  0.000000000000E+000  0.000000000000E+000  0.000000000000E+000  0.000000000000E+000  0.000000000000E+000  0.000000000000E+000  0.000000000000E+000  0.000000000000E+000  0.000000000000E+000  0.000000000000E+000
    0.000000000000E+000  0.000000000000E+000 -2.840072093401E-002  0.000000000000E+000  0.000000000000E+000  0.000000000000E+000  0.000000000000E+000  0.000000000000E+000  0.000000000000E+000  0.000000000000E+000  2.840072093401E-002  0.000000000000E+000  0.000000000000E+000  0.000000000000E+000  0.000000000000E+000  0.000000000000E+000  0.000000000000E+000  0.000000000000E+000  0.000000000000E+000  0.000000000000E+000  0.000000000000E+000  0.000000000000E+000  0.000000000000E+000  0.000000000000E+000  0.000000000000E+000  0.000000000000E+000  0.000000000000E+000  0.000000000000E+000
    0.000000000000E+000  0.000000000000E+000  0.000000000000E+000 -2.840072093401E-002  0.000000000000E+000  0.000000000000E+000  0.000000000000E+000  0.000000000000E+000  0.000000000000E+000  0.000000000000E+000  0.000000000000E+000  2.840072093401E-002  0.000000000000E+000  0.000000000000E+000  0.000000000000E+000  0.000000000000E+000  0.000000000000E+000  0.000000000000E+000  0.000000000000E+000  0.000000000000E+000  0.000000000000E+000  0.000000000000E+000  0.000000000000E+000  0.000000000000E+000  0.000000000000E+000  0.000000000000E+000  0.000000000000E+000  0.000000000000E+000
    0.000000000000E+000  0.000000000000E+000  0.000000000000E+000  0.000000000000E+000 -3.846401513958E-002  0.000000000000E+000  0.000000000000E+000  0.000000000000E+000  0.000000000000E+000  0.000000000000E+000  0.000000000000E+000  0.000000000000E+000  3.846401513958E-002  0.000000000000E+000  0.000000000000E+000  0.000000000000E+000  0.000000000000E+000  0.000000000000E+000  0.000000000000E+000  0.000000000000E+000  0.000000000000E+000  0.000000000000E+000  0.000000000000E+000  0.000000000000E+000  0.000000000000E+000  0.000000000000E+000  0.000000000000E+000  0.000000000000E+000
    0.000000000000E+000  0.000000000000E+000  0.000000000000E+000  0.000000000000E+000  0.000000000000E+000 -3.846401513958E-002  0.000000000000E+000  0.000000000000E+000  0.000000000000E+000  0.000000000000E+000  0.000000000000E+000  0.000000000000E+000  0.000000000000E+000  3.846401513958E-002  0.000000000000E+000  0.000000000000E+000  0.000000000000E+000  0.000000000000E+000  0.000000000000E+000  0.000000000000E+000  0.000000000000E+000  0.000000000000E+000  0.000000000000E+000  0.000000000000E+000  0.000000000000E+000  0.000000000000E+000  0.000000000000E+000  0.000000000000E+000
    0.000000000000E+000  0.000000000000E+000  0.000000000000E+000  0.000000000000E+000  0.000000000000E+000  0.000000000000E+000 -7.692307692308E-002  0.000000000000E+000  0.000000000000E+000  0.000000000000E+000  0.000000000000E+000  0.000000000000E+000  0.000000000000E+000  0.000000000000E+000  7.692307692308E-002  0.000000000000E+000  0.000000000000E+000  0.000000000000E+000  0.000000000000E+000  0.000000000000E+000  0.000000000000E+000  0.000000000000E+000  0.000000000000E+000  0.000000000000E+000  0.000000000000E+000  0.000000000000E+000  0.000000000000E+000  0.000000000000E+000
    0.000000000000E+000  0.000000000000E+000  0.000000000000E+000  0.000000000000E+000  0.000000000000E+000  0.000000000000E+000  0.000000000000E+000 -7.692307692308E-002  0.000000000000E+000  0.000000000000E+000  0.000000000000E+000  0.000000000000E+000  0.000000000000E+000  0.000000000000E+000  0.000000000000E+000  7.692307692308E-002  0.000000000000E+000  0.000000000000E+000  0.000000000000E+000  0.000000000000E+000  0.000000000000E+000  0.000000000000E+000  0.000000000000E+000  0.000000000000E+000  0.000000000000E+000  0.000000000000E+000  0.000000000000E+000  0.000000000000E+000
    0.000000000000E+000  0.000000000000E+000  0.000000000000E+000  0.000000000000E+000  0.000000000000E+000  0.000000000000E+000  0.000000000000E+000  0.000000000000E+000 -1.000000000000E-002  0.000000000000E+000  0.000000000000E+000  0.000000000000E+000  0.000000000000E+000  0.000000000000E+000  0.000000000000E+000  0.000000000000E+000  0.000000000000E+000  0.000000000000E+000  0.000000000000E+000  0.000000000000E+000  0.000000000000E+000  0.000000000000E+000  0.000000000000E+000  0.000000000000E+000  0.000000000000E+000  0.000000000000E+000  0.000000000000E+000  0.000000000000E+000
    0.000000000000E+000  0.000000000000E+000  0.000000000000E+000  0.000000000000E+000  0.000000000000E+000  0.000000000000E+000  0.000000000000E+000  0.000000000000E+000  0.000000000000E+000 -1.000000000000E-002  0.000000000000E+000  0.000000000000E+000  0.000000000000E+000  0.000000000000E+000  0.000000000000E+000  0.000000000000E+000  0.000000000000E+000  0.000000000000E+000  0.000000000000E+000  0.000000000000E+000  0.000000000000E+000  0.000000000000E+000  0.000000000000E+000  0.000000000000E+000  0.000000000000E+000  0.000000000000E+000  0.000000000000E+000  0.000000000000E+000
    0.000000000000E+000  0.000000000000E+000  0.000000000000E+000  0.000000000000E+000  0.000000000000E+000  0.000000000000E+000  0.000000000000E+000  0.000000000000E+000  0.000000000000E+000  0.000000000000E+000 -1.000000000000E-002  0.000000000000E+000  0.000000000000E+000  0.000000000000E+000  0.000000000000E+000  0.000000000000E+000  0.000000000000E+000  0.000000000000E+000  0.000000000000E+000  0.000000000000E+000  0.000000000000E+000  0.000000000000E+000  0.000000000000E+000  0.000000000000E+000  0.000000000000E+000  0.000000000000E+000  0.000000000000E+000  0.000000000000E+000
    0.000000000000E+000  0.000000000000E+000  0.000000000000E+000  0.000000000000E+000  0.000000000000E+000  0.000000000000E+000  0.000000000000E+000  0.000000000000E+000  0.000000000000E+000  0.000000000000E+000  0.000000000000E+000 -1.000000000000E-002  0.000000000000E+000  0.000000000000E+000  0.000000000000E+000  0.000000000000E+000  0.000000000000E+000  0.000000000000E+000  0.000000000000E+000  0.000000000000E+000  0.000000000000E+000  0.000000000000E+000  0.000000000000E+000  0.000000000000E+000  0.000000000000E+000  0.000000000000E+000  0.000000000000E+000  0.000000000000E+000
    0.000000000000E+000  0.000000000000E+000  0.000000000000E+000  0.000000000000E+000  0.000000000000E+000  0.000000000000E+000  0.000000000000E+000  0.000000000000E+000  0.000000000000E+000  0.000000000000E+000  0.000000000000E+000  0.000000000000E+000 -1.000000000000E-002  0.000000000000E+000  0.000000000000E+000  0.000000000000E+000  0.000000000000E+000  0.000000000000E+000  0.000000000000E+000  0.000000000000E+000  0.000000000000E+000  0.000000000000E+000  0.000000000000E+000  0.000000000000E+000  0.000000000000E+000  0.000000000000E+000  0.000000000000E+000  0.000000000000E+000
    0.000000000000E+000  0.000000000000E+000  0.000000000000E+000  0.000000000000E+000  0.000000000000E+000  0.000000000000E+000  0.000000000000E+000  0.000000000000E+000  0.000000000000E+000  0.000000000000E+000  0.000000000000E+000  0.000000000000E+000  0.000000000000E+000 -1.000000000000E-002  0.000000000000E+000  0.000000000000E+000  0.000000000000E+000  0.000000000000E+000  0.000000000000E+000  0.000000000000E+000  0.000000000000E+000  0.000000000000E+000  0.000000000000E+000  0.000000000000E+000  0.000000000000E+000  0.000000000000E+000  0.000000000000E+000  0.000000000000E+000
    0.000000000000E+000  0.000000000000E+000  0.000000000000E+000  0.000000000000E+000  0.000000000000E+000  0.000000000000E+000  0.000000000000E+000  0.000000000000E+000  0.000000000000E+000  0.000000000000E+000  0.000000000000E+000  0.000000000000E+000  0.000000000000E+000  0.000000000000E+000 -1.000000000000E-002  0.000000000000E+000  0.000000000000E+000  0.000000000000E+000  0.000000000000E+000  0.000000000000E+000  0.000000000000E+000  0.000000000000E+000  0.000000000000E+000  0.000000000000E+000  0.000000000000E+000  0.000000000000E+000  0.000000000000E+000  0.000000000000E+000
    0.000000000000E+000  0.000000000000E+000  0.000000000000E+000  0.000000000000E+000  0.000000000000E+000  0.000000000000E+000  0.000000000000E+000  0.000000000000E+000  0.000000000000E+000  0.000000000000E+000  0.000000000000E+000  0.000000000000E+000  0.000000000000E+000  0.000000000000E+000  0.000000000000E+000 -1.000000000000E-002  0.000000000000E+000  0.000000000000E+000  0.000000000000E+000  0.000000000000E+000  0.000000000000E+000  0.000000000000E+000  0.000000000000E+000  0.000000000000E+000  0.000000000000E+000  0.000000000000E+000  0.000000000000E+000  0.000000000000E+000
    0.000000000000E+000  0.000000000000E+000  1.851968225142E-002 -7.209826287367E-003  0.000000000000E+000  0.000000000000E+000  0.000000000000E+000  0.000000000000E+000  0.000000000000E+000  0.000000000000E+000  0.000000000000E+000  0.000000000000E+000  0.000000000000E+000  0.000000000000E+000  0.000000000000E+000  0.000000000000E+000 -2.260933711269E+000  0.000000000000E+000  0.000000000000E+000  0.000000000000E+000  0.000000000000E+000  0.000000000000E+000  0.000000000000E+000  0.000000000000E+000  0.000000000000E+000  0.000000000000E+000  0.000000000000E+000  0.000000000000E+000
    0.000000000000E+000  0.000000000000E+000  1.628023250397E-001 -6.560640479125E-002  0.000000000000E+000  0.000000000000E+000  0.000000000000E+000  0.000000000000E+000  0.000000000000E+000  0.000000000000E+000  0.000000000000E+000  0.000000000000E+000  0.000000000000E+000  0.000000000000E+000  0.000000000000E+000  0.000000000000E+000  0.000000000000E+000 -8.559249049803E+000  0.000000000000E+000  0.000000000000E+000  0.000000000000E+000  0.000000000000E+000  0.000000000000E+000  0.000000000000E+000  0.000000000000E+000  0.000000000000E+000  0.000000000000E+000  0.000000000000E+000
    0.000000000000E+000  0.000000000000E+000  3.692082224863E-003  8.991790504836E-003  0.000000000000E+000  0.000000000000E+000  0.000000000000E+000  0.000000000000E+000  0.000000000000E+000  0.000000000000E+000  0.000000000000E+000  0.000000000000E+000  0.000000000000E+000  0.000000000000E+000  0.000000000000E+000  0.000000000000E+000  7.293538891407E+001  7.293538891407E+001 -9.499721475919E+000  0.000000000000E+000  0.000000000000E+000  0.000000000000E+000  0.000000000000E+000  0.000000000000E+000  0.000000000000E+000  0.000000000000E+000  0.000000000000E+000  0.000000000000E+000
    0.000000000000E+000  0.000000000000E+000 -1.488599932721E-003 -3.625373955744E-003  0.000000000000E+000  0.000000000000E+000  0.000000000000E+000  0.000000000000E+000  0.000000000000E+000  0.000000000000E+000  0.000000000000E+000  0.000000000000E+000  0.000000000000E+000  0.000000000000E+000  0.000000000000E+000  0.000000000000E+000  0.000000000000E+000  0.000000000000E+000 -1.758814374961E+000 -5.383175503020E+000  0.000000000000E+000  0.000000000000E+000  0.000000000000E+000  0.000000000000E+000  0.000000000000E+000  0.000000000000E+000  0.000000000000E+000  0.000000000000E+000
    0.000000000000E+000  0.000000000000E+000  0.000000000000E+000  0.000000000000E+000  2.741265202509E-002 -6.658802988405E-003  0.000000000000E+000  0.000000000000E+000  0.000000000000E+000  0.000000000000E+000  0.000000000000E+000  0.000000000000E+000  0.000000000000E+000  0.000000000000E+000  0.000000000000E+000  0.000000000000E+000  0.000000000000E+000  0.000000000000E+000  0.000000000000E+000  0.000000000000E+000 -5.509800919049E+000  0.000000000000E+000  0.000000000000E+000  0.000000000000E+000  0.000000000000E+000  0.000000000000E+000  0.000000000000E+000  0.000000000000E+000
    0.000000000000E+000  0.000000000000E+000  0.000000000000E+000  0.000000000000E+000  2.402804669979E-001 -6.548564668506E-002  0.000000000000E+000  0.000000000000E+000  0.000000000000E+000  0.000000000000E+000  0.000000000000E+000  0.000000000000E+000  0.000000000000E+000  0.000000000000E+000  0.000000000000E+000  0.000000000000E+000  0.000000000000E+000  0.000000000000E+000  0.000000000000E+000  0.000000000000E+000  0.000000000000E+000 -2.085853205069E+001  0.000000000000E+000  0.000000000000E+000  0.000000000000E+000  0.000000000000E+000  0.000000000000E+000  0.000000000000E+000
    0.000000000000E+000  0.000000000000E+000  0.000000000000E+000  0.000000000000E+000  4.134305184766E-003  1.478054618889E-002  0.000000000000E+000  0.000000000000E+000  0.000000000000E+000  0.000000000000E+000  0.000000000000E+000  0.000000000000E+000  0.000000000000E+000  0.000000000000E+000  0.000000000000E+000  0.000000000000E+000  0.000000000000E+000  0.000000000000E+000  0.000000000000E+000  0.000000000000E+000  1.777404931719E+002  1.777404931719E+002 -2.315042402962E+001  0.000000000000E+000  0.000000000000E+000  0.000000000000E+000  0.000000000000E+000  0.000000000000E+000
    0.000000000000E+000  0.000000000000E+000  0.000000000000E+000  0.000000000000E+000 -2.547643644660E-003 -9.108075693534E-003  0.000000000000E+000  0.000000000000E+000  0.000000000000E+000  0.000000000000E+000  0.000000000000E+000  0.000000000000E+000  0.000000000000E+000  0.000000000000E+000  0.000000000000E+000  0.000000000000E+000  0.000000000000E+000  0.000000000000E+000  0.000000000000E+000  0.000000000000E+000  0.000000000000E+000  0.000000000000E+000 -5.152388901027E+000 -1.311857361678E+001  0.000000000000E+000  0.000000000000E+000  0.000000000000E+000  0.000000000000E+000
    0.000000000000E+000  0.000000000000E+000  0.000000000000E+000  0.000000000000E+000  0.000000000000E+000  0.000000000000E+000  0.000000000000E+000  0.000000000000E+000  0.000000000000E+000  0.000000000000E+000  0.000000000000E+000  0.000000000000E+000  0.000000000000E+000  0.000000000000E+000  0.000000000000E+000  0.000000000000E+000  0.000000000000E+000  0.000000000000E+000  0.000000000000E+000  0.000000000000E+000  0.000000000000E+000  0.000000000000E+000  0.000000000000E+000  0.000000000000E+000 -1.562778849975E+001  0.000000000000E+000  0.000000000000E+000  0.000000000000E+000