
Predictions were generated on 13-Feb-2024 at 17:55:51 using HydroDyn Driver, compiled on Feb 13 2024 at 17:43:26 as a 64-bit application using double precision at commit v2.5.0-3856-g75eff1d1-dirty
 linked with  NWTC Subroutine Library

Description from the driver input file: Compatible with HydroDyn v4.00

Time	Wave1Elev	HydroFxi	HydroFyi	HydroFzi	HydroMxi	HydroMyi	HydroMzi
(s)	(m)	(N)	(N)	(N)	(N-m)	(N-m)	(N-m)
    0.0000	   9.331236E-01	   1.778790E+04	   4.769457E+03	   9.419227E+06	   3.556846E+07	   3.004359E+07	  -8.842513E+04
    0.1000	   7.783685E-01	   1.495566E+04	   4.009731E+03	   9.419030E+06	   3.557279E+07	   3.002934E+07	  -7.428177E+04
    0.2000	   6.228455E-01	   1.204884E+04	   3.230115E+03	   9.418982E+06	   3.557690E+07	   3.001772E+07	  -5.979371E+04
    0.3000	   4.667075E-01	   9.078793E+03	   2.433677E+03	   9.419084E+06	   3.558076E+07	   3.000882E+07	  -4.501847E+04
    0.4000	   3.101093E-01	   6.057203E+03	   1.623552E+03	   9.419337E+06	   3.558433E+07	   3.000273E+07	  -3.001504E+04
    0.5000	   1.532048E-01	   2.996060E+03	   8.029755E+02	   9.419740E+06	   3.558760E+07	   2.999950E+07	  -1.484358E+04
    0.6000	  -3.850810E-03	  -9.239716E+01	  -2.476085E+01	   9.420291E+06	   3.559054E+07	   2.999919E+07	   4.347598E+02
    0.7000	  -1.609028E-01	  -3.195732E+03	  -8.563113E+02	   9.420989E+06	   3.559313E+07	   3.000182E+07	   1.575814E+04
    0.8000	  -3.177957E-01	  -6.301362E+03	  -1.688287E+03	   9.421830E+06	   3.559535E+07	   3.000740E+07	   3.106427E+04
    0.9000	  -4.743753E-01	  -9.396601E+03	  -2.517283E+03	   9.422813E+06	   3.559720E+07	   3.001593E+07	   4.629067E+04
    1.0000	  -6.304863E-01	  -1.246874E+04	  -3.339866E+03	   9.423933E+06	   3.559865E+07	   3.002737E+07	   6.137498E+04
    1.1000	  -7.859755E-01	  -1.550504E+04	  -4.152639E+03	   9.425186E+06	   3.559970E+07	   3.004169E+07	   7.625506E+04
    1.2000	  -9.406888E-01	  -1.849289E+04	  -4.952179E+03	   9.426567E+06	   3.560035E+07	   3.005882E+07	   9.086962E+04
    1.3000	  -1.094474E+00	  -2.141977E+04	  -5.735160E+03	   9.428071E+06	   3.560060E+07	   3.007868E+07	   1.051581E+05
    1.4000	  -1.247179E+00	  -2.427334E+04	  -6.498215E+03	   9.429692E+06	   3.560045E+07	   3.010116E+07	   1.190610E+05
    1.5000	  -1.398653E+00	  -2.704146E+04	  -7.238152E+03	   9.431423E+06	   3.559990E+07	   3.012616E+07	   1.325204E+05
    1.6000	  -1.548747E+00	  -2.971136E+04	  -7.951735E+03	   9.433257E+06	   3.559897E+07	   3.015355E+07	   1.454754E+05
    1.7000	  -1.697312E+00	  -3.227051E+04	  -8.635938E+03	   9.435188E+06	   3.559767E+07	   3.018316E+07	   1.578671E+05
    1.8000	  -1.844202E+00	  -3.470894E+04	  -9.287768E+03	   9.437206E+06	   3.559600E+07	   3.021485E+07	   1.696482E+05
    1.9000	  -1.989273E+00	  -3.701591E+04	  -9.904399E+03	   9.439305E+06	   3.559400E+07	   3.024843E+07	   1.807684E+05
    2.0000	  -2.132380E+00	  -3.918134E+04	  -1.048311E+04	   9.441476E+06	   3.559168E+07	   3.028372E+07	   1.911806E+05
    2.1000	  -2.273383E+00	  -4.119550E+04	  -1.102139E+04	   9.443709E+06	   3.558906E+07	   3.032052E+07	   2.008399E+05
    2.2000	  -2.412142E+00	  -4.304947E+04	  -1.151673E+04	   9.445997E+06	   3.558618E+07	   3.035862E+07	   2.097050E+05
    2.3000	  -2.548521E+00	  -4.473479E+04	  -1.196703E+04	   9.448329E+06	   3.558305E+07	   3.039780E+07	   2.177376E+05
    2.4000	  -2.682384E+00	  -4.624397E+04	  -1.237010E+04	   9.450696E+06	   3.557970E+07	   3.043785E+07	   2.249034E+05
    2.5000	  -2.813601E+00	  -4.756996E+04	  -1.272427E+04	   9.453088E+06	   3.557618E+07	   3.047853E+07	   2.311712E+05
    2.6000	  -2.942041E+00	  -4.870659E+04	  -1.302769E+04	   9.455496E+06	   3.557250E+07	   3.051962E+07	   2.365131E+05
    2.7000	  -3.067578E+00	  -4.964843E+04	  -1.327927E+04	   9.457910E+06	   3.556870E+07	   3.056087E+07	   2.409061E+05
    2.8000	  -3.190086E+00	  -5.039132E+04	  -1.347733E+04	   9.460320E+06	   3.556482E+07	   3.060206E+07	   2.443316E+05
    2.9000	  -3.309447E+00	  -5.093098E+04	  -1.362128E+04	   9.462716E+06	   3.556089E+07	   3.064295E+07	   2.467722E+05
    3.0000	  -3.425541E+00	  -5.126515E+04	  -1.371014E+04	   9.465089E+06	   3.555694E+07	   3.068331E+07	   2.482190E+05
    3.1000	  -3.538256E+00	  -5.139167E+04	  -1.374362E+04	   9.467428E+06	   3.555300E+07	   3.072291E+07	   2.486641E+05
    3.2000	  -3.647479E+00	  -5.130973E+04	  -1.372126E+04	   9.469725E+06	   3.554910E+07	   3.076155E+07	   2.481055E+05
    3.3000	  -3.753101E+00	  -5.101883E+04	  -1.364296E+04	   9.471969E+06	   3.554528E+07	   3.079899E+07	   2.465430E+05
    3.4000	  -3.855020E+00	  -5.051996E+04	  -1.350909E+04	   9.474152E+06	   3.554157E+07	   3.083505E+07	   2.439834E+05
    3.5000	  -3.953134E+00	  -4.981504E+04	  -1.332018E+04	   9.476265E+06	   3.553800E+07	   3.086952E+07	   2.404380E+05
    3.6000	  -4.047348E+00	  -4.890648E+04	  -1.307678E+04	   9.478299E+06	   3.553458E+07	   3.090223E+07	   2.359198E+05
    3.7000	  -4.137566E+00	  -4.779786E+04	  -1.277979E+04	   9.480246E+06	   3.553135E+07	   3.093300E+07	   2.304473E+05
    3.8000	  -4.223701E+00	  -4.649368E+04	  -1.243032E+04	   9.482098E+06	   3.552833E+07	   3.096168E+07	   2.240434E+05
    3.9000	  -4.305669E+00	  -4.499893E+04	  -1.203028E+04	   9.483848E+06	   3.552554E+07	   3.098812E+07	   2.167344E+05
    4.0000	  -4.383387E+00	  -4.331993E+04	  -1.158048E+04	   9.485488E+06	   3.552300E+07	   3.101220E+07	   2.085498E+05
    4.1000	  -4.456779E+00	  -4.146343E+04	  -1.108336E+04	   9.487012E+06	   3.552072E+07	   3.103381E+07	   1.995240E+05
    4.2000	  -4.525773E+00	  -3.943721E+04	  -1.054060E+04	   9.488414E+06	   3.551871E+07	   3.105284E+07	   1.896941E+05
    4.3000	  -4.590301E+00	  -3.724943E+04	  -9.955037E+03	   9.489689E+06	   3.551698E+07	   3.106923E+07	   1.791010E+05
    4.4000	  -4.650299E+00	  -3.490986E+04	  -9.328449E+03	   9.490830E+06	   3.551555E+07	   3.108292E+07	   1.677901E+05
    4.5000	  -4.705707E+00	  -3.242751E+04	  -8.663771E+03	   9.491835E+06	   3.551442E+07	   3.109384E+07	   1.558055E+05
    4.6000	  -4.756471E+00	  -2.981323E+04	  -7.963454E+03	   9.492698E+06	   3.551358E+07	   3.110199E+07	   1.431982E+05
    4.7000	  -4.802542E+00	  -2.707817E+04	  -7.231007E+03	   9.493417E+06	   3.551304E+07	   3.110734E+07	   1.300224E+05
    4.8000	  -4.843872E+00	  -2.423341E+04	  -6.469284E+03	   9.493988E+06	   3.551279E+07	   3.110991E+07	   1.163303E+05
    4.9000	  -4.880423E+00	  -2.129059E+04	  -5.681113E+03	   9.494410E+06	   3.551282E+07	   3.110971E+07	   1.021766E+05
    5.0000	  -4.912156E+00	  -1.826309E+04	  -4.869959E+03	   9.494681E+06	   3.551314E+07	   3.110678E+07	   8.762427E+04
    5.1000	  -4.939042E+00	  -1.516287E+04	  -4.039378E+03	   9.494801E+06	   3.551371E+07	   3.110119E+07	   7.273036E+04
    5.2000	  -4.961054E+00	  -1.200309E+04	  -3.192731E+03	   9.494768E+06	   3.551454E+07	   3.109298E+07	   5.755664E+04
    5.3000	  -4.978170E+00	  -8.797021E+03	  -2.333985E+03	   9.494584E+06	   3.551561E+07	   3.108225E+07	   4.216636E+04
    5.4000	  -4.990374E+00	  -5.558084E+03	  -1.466056E+03	   9.494248E+06	   3.551690E+07	   3.106909E+07	   2.662121E+04
    5.5000	  -4.997653E+00	  -2.300227E+03	  -5.932605E+02	   9.493764E+06	   3.551838E+07	   3.105361E+07	   1.098800E+04
    5.6000	  -4.999999E+00	   9.636533E+02	   2.815816E+02	   9.493133E+06	   3.552005E+07	   3.103591E+07	  -4.674133E+03
    5.7000	  -4.997410E+00	   4.219699E+03	   1.154276E+03	   9.492357E+06	   3.552188E+07	   3.101613E+07	  -2.029905E+04
    5.8000	  -4.989890E+00	   7.454388E+03	   2.021469E+03	   9.491441E+06	   3.552386E+07	   3.099439E+07	  -3.582382E+04
    5.9000	  -4.977445E+00	   1.065473E+04	   2.879013E+03	   9.490387E+06	   3.552594E+07	   3.097085E+07	  -5.118601E+04
    6.0000	  -4.960089E+00	   1.380680E+04	   3.724043E+03	   9.489201E+06	   3.552813E+07	   3.094564E+07	  -6.632199E+04
    6.1000	  -4.937838E+00	   1.689854E+04	   4.552520E+03	   9.487888E+06	   3.553038E+07	   3.091892E+07	  -8.117338E+04
    6.2000	  -4.910712E+00	   1.991615E+04	   5.362108E+03	   9.486452E+06	   3.553269E+07	   3.089086E+07	  -9.567793E+04
    6.3000	  -4.878742E+00	   2.284869E+04	   6.147991E+03	   9.484900E+06	   3.553503E+07	   3.086159E+07	  -1.097802E+05
    6.4000	  -4.841957E+00	   2.568334E+04	   6.908148E+03	   9.483238E+06	   3.553737E+07	   3.083128E+07	  -1.234225E+05
    6.5000	  -4.800392E+00	   2.840954E+04	   7.639192E+03	   9.481473E+06	   3.553970E+07	   3.080010E+07	  -1.365538E+05
    6.6000	  -4.754091E+00	   3.101577E+04	   8.338127E+03	   9.479612E+06	   3.554200E+07	   3.076820E+07	  -1.491195E+05
    6.7000	  -4.703097E+00	   3.349190E+04	   9.001971E+03	   9.477663E+06	   3.554426E+07	   3.073574E+07	  -1.610710E+05
    6.8000	  -4.647463E+00	   3.582838E+04	   9.628660E+03	   9.475634E+06	   3.554644E+07	   3.070288E+07	  -1.723636E+05
    6.9000	  -4.587242E+00	   3.801609E+04	   1.021513E+04	   9.473532E+06	   3.554855E+07	   3.066975E+07	  -1.829524E+05
    7.0000	  -4.522494E+00	   4.004627E+04	   1.075950E+04	   9.471367E+06	   3.555056E+07	   3.063651E+07	  -1.927962E+05
    7.1000	  -4.453282E+00	   4.191170E+04	   1.126005E+04	   9.469146E+06	   3.555247E+07	   3.060331E+07	  -2.018603E+05
    7.2000	  -4.379676E+00	   4.360516E+04	   1.171425E+04	   9.466878E+06	   3.555427E+07	   3.057026E+07	  -2.101085E+05
    7.3000	  -4.301748E+00	   4.512032E+04	   1.212051E+04	   9.464574E+06	   3.555594E+07	   3.053750E+07	  -2.175099E+05
    7.4000	  -4.219574E+00	   4.645207E+04	   1.247754E+04	   9.462241E+06	   3.555749E+07	   3.050515E+07	  -2.240393E+05
    7.5000	  -4.133236E+00	   4.759552E+04	   1.278401E+04	   9.459889E+06	   3.555892E+07	   3.047332E+07	  -2.296720E+05
    7.6000	  -4.042820E+00	   4.854699E+04	   1.303911E+04	   9.457526E+06	   3.556021E+07	   3.044211E+07	  -2.343895E+05
    7.7000	  -3.948413E+00	   4.930326E+04	   1.324170E+04	   9.455164E+06	   3.556138E+07	   3.041163E+07	  -2.381745E+05
    7.8000	  -3.850110E+00	   4.986220E+04	   1.339129E+04	   9.452809E+06	   3.556242E+07	   3.038194E+07	  -2.410152E+05
    7.9000	  -3.748008E+00	   5.022257E+04	   1.348760E+04	   9.450472E+06	   3.556334E+07	   3.035314E+07	  -2.429042E+05
    8.0000	  -3.642205E+00	   5.038389E+04	   1.353045E+04	   9.448162E+06	   3.556415E+07	   3.032529E+07	  -2.438373E+05
    8.1000	  -3.532809E+00	   5.034614E+04	   1.351979E+04	   9.445887E+06	   3.556486E+07	   3.029845E+07	  -2.438123E+05
    8.2000	  -3.419927E+00	   5.011053E+04	   1.345605E+04	   9.443657E+06	   3.556547E+07	   3.027268E+07	  -2.428333E+05
    8.3000	  -3.303669E+00	   4.967905E+04	   1.333974E+04	   9.441479E+06	   3.556601E+07	   3.024802E+07	  -2.409078E+05
    8.4000	  -3.184152E+00	   4.905421E+04	   1.317132E+04	   9.439362E+06	   3.556647E+07	   3.022450E+07	  -2.380452E+05
    8.5000	  -3.061491E+00	   4.823950E+04	   1.295212E+04	   9.437314E+06	   3.556688E+07	   3.020215E+07	  -2.342609E+05
    8.6000	  -2.935809E+00	   4.723909E+04	   1.268302E+04	   9.435342E+06	   3.556726E+07	   3.018100E+07	  -2.295724E+05
    8.7000	  -2.807231E+00	   4.605813E+04	   1.236529E+04	   9.433455E+06	   3.556762E+07	   3.016106E+07	  -2.240021E+05
    8.8000	  -2.675882E+00	   4.470173E+04	   1.200058E+04	   9.431659E+06	   3.556796E+07	   3.014233E+07	  -2.175729E+05
    8.9000	  -2.541892E+00	   4.317655E+04	   1.159048E+04	   9.429960E+06	   3.556832E+07	   3.012481E+07	  -2.103144E+05
    9.0000	  -2.405393E+00	   4.148925E+04	   1.113688E+04	   9.428366E+06	   3.556872E+07	   3.010852E+07	  -2.022570E+05
    9.1000	  -2.266521E+00	   3.964732E+04	   1.064180E+04	   9.426881E+06	   3.556915E+07	   3.009343E+07	  -1.934346E+05
    9.2000	  -2.125412E+00	   3.765895E+04	   1.010741E+04	   9.425512E+06	   3.556965E+07	   3.007953E+07	  -1.838850E+05
    9.3000	  -1.982205E+00	   3.553265E+04	   9.536010E+03	   9.424262E+06	   3.557024E+07	   3.006682E+07	  -1.736475E+05
    9.4000	  -1.837042E+00	   3.327731E+04	   8.930048E+03	   9.423138E+06	   3.557091E+07	   3.005526E+07	  -1.627633E+05
    9.5000	  -1.690066E+00	   3.090256E+04	   8.292127E+03	   9.422142E+06	   3.557170E+07	   3.004485E+07	  -1.512777E+05
    9.6000	  -1.541421E+00	   2.841818E+04	   7.624810E+03	   9.421277E+06	   3.557261E+07	   3.003555E+07	  -1.392365E+05
    9.7000	  -1.391256E+00	   2.583570E+04	   6.930909E+03	   9.420548E+06	   3.557366E+07	   3.002735E+07	  -1.266938E+05
    9.8000	  -1.239719E+00	   2.316410E+04	   6.213299E+03	   9.419956E+06	   3.557486E+07	   3.002021E+07	  -1.136929E+05
    9.9000	  -1.086957E+00	   2.041406E+04	   5.474930E+03	   9.419504E+06	   3.557622E+07	   3.001412E+07	  -1.002847E+05
   10.0000	  -9.331230E-01	   1.759667E+04	   4.718693E+03	   9.419192E+06	   3.557774E+07	   3.000906E+07	  -8.652220E+04
   10.1000	  -7.783679E-01	   1.472332E+04	   3.947695E+03	   9.419022E+06	   3.557944E+07	   3.000499E+07	  -7.246034E+04
   10.2000	  -6.228449E-01	   1.180545E+04	   3.164964E+03	   9.418994E+06	   3.558132E+07	   3.000189E+07	  -5.815441E+04
   10.3000	  -4.667069E-01	   8.854644E+03	   2.373611E+03	   9.419107E+06	   3.558338E+07	   2.999974E+07	  -4.366066E+04
   10.4000	  -3.101088E-01	   5.882499E+03	   1.576716E+03	   9.419362E+06	   3.558562E+07	   2.999852E+07	  -2.903562E+04
   10.5000	  -1.532039E-01	   2.900646E+03	   7.773996E+02	   9.419755E+06	   3.558803E+07	   2.999822E+07	  -1.433633E+04
   10.6000	   3.851522E-03	  -7.936214E+01	  -2.126770E+01	   9.420286E+06	   3.559062E+07	   2.999881E+07	   3.803781E+02
   10.7000	   1.609033E-01	  -3.046031E+03	  -8.162117E+02	   9.420953E+06	   3.559338E+07	   3.000028E+07	   1.505765E+04
   10.8000	   3.177962E-01	  -5.988028E+03	  -1.604407E+03	   9.421752E+06	   3.559631E+07	   3.000262E+07	   2.963919E+04
   10.9000	   4.743758E-01	  -8.894167E+03	  -2.382875E+03	   9.422680E+06	   3.559938E+07	   3.000582E+07	   4.406917E+04
   11.0000	   6.304871E-01	  -1.175348E+04	  -3.148682E+03	   9.423733E+06	   3.560259E+07	   3.000987E+07	   5.829259E+04
   11.1000	   7.859762E-01	  -1.455525E+04	  -3.898976E+03	   9.424907E+06	   3.560593E+07	   3.001476E+07	   7.225554E+04
   11.2000	   9.406893E-01	  -1.728908E+04	  -4.630969E+03	   9.426197E+06	   3.560938E+07	   3.002050E+07	   8.590523E+04
   11.3000	   1.094475E+00	  -1.994482E+04	  -5.341985E+03	   9.427599E+06	   3.561291E+07	   3.002707E+07	   9.919021E+04
   11.4000	   1.247179E+00	  -2.251278E+04	  -6.029405E+03	   9.429106E+06	   3.561652E+07	   3.003449E+07	   1.120608E+05
   11.5000	   1.398654E+00	  -2.498354E+04	  -6.690763E+03	   9.430712E+06	   3.562018E+07	   3.004275E+07	   1.244687E+05
   11.6000	   1.548747E+00	  -2.734831E+04	  -7.323582E+03	   9.432411E+06	   3.562388E+07	   3.005185E+07	   1.363683E+05
   11.7000	   1.697312E+00	  -2.959841E+04	  -7.925770E+03	   9.434198E+06	   3.562757E+07	   3.006179E+07	   1.477147E+05
   11.8000	   1.844203E+00	  -3.172604E+04	  -8.495070E+03	   9.436063E+06	   3.563125E+07	   3.007258E+07	   1.584670E+05
   11.9000	   1.989273E+00	  -3.372349E+04	  -9.029498E+03	   9.438002E+06	   3.563489E+07	   3.008422E+07	   1.685846E+05
   12.0000	   2.132380E+00	  -3.558395E+04	  -9.527189E+03	   9.440005E+06	   3.563846E+07	   3.009672E+07	   1.780315E+05
   12.1000	   2.273383E+00	  -3.730097E+04	  -9.986477E+03	   9.442065E+06	   3.564193E+07	   3.011006E+07	   1.867733E+05
   12.2000	   2.412142E+00	  -3.886861E+04	  -1.040574E+04	   9.444175E+06	   3.564528E+07	   3.012426E+07	   1.947778E+05
   12.3000	   2.548521E+00	  -4.028159E+04	  -1.078361E+04	   9.446325E+06	   3.564849E+07	   3.013931E+07	   2.020166E+05
   12.4000	   2.682384E+00	  -4.153524E+04	  -1.111872E+04	   9.448509E+06	   3.565152E+07	   3.015521E+07	   2.084637E+05
   12.5000	   2.813601E+00	  -4.262545E+04	  -1.141023E+04	   9.450717E+06	   3.565436E+07	   3.017195E+07	   2.140965E+05
   12.6000	   2.942040E+00	  -4.354868E+04	  -1.165688E+04	   9.452942E+06	   3.565696E+07	   3.018952E+07	   2.188947E+05
   12.7000	   3.067577E+00	  -4.430214E+04	  -1.185814E+04	   9.455173E+06	   3.565932E+07	   3.020790E+07	   2.228423E+05
   12.8000	   3.190086E+00	  -4.488360E+04	  -1.201330E+04	   9.457404E+06	   3.566142E+07	   3.022708E+07	   2.259255E+05
   12.9000	   3.309447E+00	  -4.529137E+04	  -1.212209E+04	   9.459626E+06	   3.566322E+07	   3.024704E+07	   2.281341E+05
   13.0000	   3.425541E+00	  -4.552474E+04	  -1.218400E+04	   9.461830E+06	   3.566470E+07	   3.026774E+07	   2.294622E+05
   13.1000	   3.538255E+00	  -4.558276E+04	  -1.219916E+04	   9.464007E+06	   3.566585E+07	   3.028917E+07	   2.299031E+05
   13.2000	   3.647478E+00	  -4.546632E+04	  -1.216752E+04	   9.466150E+06	   3.566666E+07	   3.031128E+07	   2.294594E+05
   13.3000	   3.753101E+00	  -4.517608E+04	  -1.208933E+04	   9.468250E+06	   3.566710E+07	   3.033403E+07	   2.281328E+05
   13.4000	   3.855019E+00	  -4.471356E+04	  -1.196496E+04	   9.470299E+06	   3.566716E+07	   3.035738E+07	   2.259291E+05
   13.5000	   3.953134E+00	  -4.408082E+04	  -1.179537E+04	   9.472289E+06	   3.566684E+07	   3.038127E+07	   2.228575E+05
   13.6000	   4.047347E+00	  -4.328080E+04	  -1.158052E+04	   9.474214E+06	   3.566612E+07	   3.040564E+07	   2.189312E+05
   13.7000	   4.137566E+00	  -4.231670E+04	  -1.132192E+04	   9.476064E+06	   3.566500E+07	   3.043043E+07	   2.141652E+05
   13.8000	   4.223701E+00	  -4.119210E+04	  -1.102054E+04	   9.477834E+06	   3.566348E+07	   3.045558E+07	   2.085770E+05
   13.9000	   4.305669E+00	  -3.991202E+04	  -1.067722E+04	   9.479516E+06	   3.566155E+07	   3.048100E+07	   2.021905E+05
   14.0000	   4.383387E+00	  -3.848112E+04	  -1.029342E+04	   9.481105E+06	   3.565922E+07	   3.050661E+07	   1.950287E+05
   14.1000	   4.456779E+00	  -3.690471E+04	  -9.871112E+03	   9.482593E+06	   3.565648E+07	   3.053234E+07	   1.871184E+05
   14.2000	   4.525773E+00	  -3.518922E+04	  -9.411154E+03	   9.483975E+06	   3.565336E+07	   3.055808E+07	   1.784912E+05
   14.3000	   4.590301E+00	  -3.334093E+04	  -8.915882E+03	   9.485246E+06	   3.564985E+07	   3.058375E+07	   1.691790E+05
   14.4000	   4.650299E+00	  -3.136680E+04	  -8.386715E+03	   9.486401E+06	   3.564598E+07	   3.060925E+07	   1.592170E+05
   14.5000	   4.705707E+00	  -2.927423E+04	  -7.825890E+03	   9.487435E+06	   3.564174E+07	   3.063447E+07	   1.486426E+05
   14.6000	   4.756471E+00	  -2.707086E+04	  -7.235268E+03	   9.488344E+06	   3.563718E+07	   3.065930E+07	   1.374951E+05
   14.7000	   4.802542E+00	  -2.476521E+04	  -6.617663E+03	   9.489125E+06	   3.563229E+07	   3.068365E+07	   1.258180E+05
   14.8000	   4.843872E+00	  -2.236565E+04	  -5.974397E+03	   9.489774E+06	   3.562711E+07	   3.070739E+07	   1.136542E+05
   14.9000	   4.880422E+00	  -1.988086E+04	  -5.308584E+03	   9.490289E+06	   3.562166E+07	   3.073041E+07	   1.010486E+05
   15.0000	   4.912156E+00	  -1.732068E+04	  -4.622313E+03	   9.490668E+06	   3.561597E+07	   3.075261E+07	   8.805170E+04
   15.1000	   4.939043E+00	  -1.469374E+04	  -3.918490E+03	   9.490909E+06	   3.561006E+07	   3.077386E+07	   7.470846E+04
   15.2000	   4.961055E+00	  -1.201036E+04	  -3.199328E+03	   9.491010E+06	   3.560397E+07	   3.079406E+07	   6.107214E+04
   15.3000	   4.978171E+00	  -9.280209E+03	  -2.467344E+03	   9.490972E+06	   3.559772E+07	   3.081309E+07	   4.719286E+04
   15.4000	   4.990374E+00	  -6.513121E+03	  -1.725737E+03	   9.490794E+06	   3.559136E+07	   3.083084E+07	   3.312188E+04
   15.5000	   4.997652E+00	  -3.719698E+03	  -9.767240E+02	   9.490477E+06	   3.558491E+07	   3.084720E+07	   1.891407E+04
   15.6000	   4.999999E+00	  -9.101447E+02	  -2.237013E+02	   9.490022E+06	   3.557840E+07	   3.086208E+07	   4.622718E+03
   15.7000	   4.997410E+00	   1.904880E+03	   5.306818E+02	   9.489430E+06	   3.557189E+07	   3.087536E+07	  -9.696834E+03
   15.8000	   4.989890E+00	   4.715059E+03	   1.284021E+03	   9.488703E+06	   3.556539E+07	   3.088697E+07	  -2.399103E+04
   15.9000	   4.977446E+00	   7.510453E+03	   2.033143E+03	   9.487845E+06	   3.555895E+07	   3.089680E+07	  -3.820794E+04
   16.0000	   4.960089E+00	   1.027974E+04	   2.775520E+03	   9.486857E+06	   3.555260E+07	   3.090478E+07	  -5.228896E+04
   16.1000	   4.937838E+00	   1.301306E+04	   3.508003E+03	   9.485744E+06	   3.554638E+07	   3.091083E+07	  -6.618267E+04
   16.2000	   4.910713E+00	   1.569950E+04	   4.228230E+03	   9.484511E+06	   3.554033E+07	   3.091489E+07	  -7.983272E+04
   16.3000	   4.878742E+00	   1.832957E+04	   4.933113E+03	   9.483160E+06	   3.553448E+07	   3.091690E+07	  -9.318952E+04
   16.4000	   4.841957E+00	   2.089300E+04	   5.620364E+03	   9.481698E+06	   3.552886E+07	   3.091681E+07	  -1.062003E+05
   16.5000	   4.800393E+00	   2.338015E+04	   6.286871E+03	   9.480130E+06	   3.552350E+07	   3.091460E+07	  -1.188148E+05
   16.6000	   4.754091E+00	   2.578120E+04	   6.930330E+03	   9.478463E+06	   3.551844E+07	   3.091022E+07	  -1.309826E+05
   16.7000	   4.703098E+00	   2.808647E+04	   7.548380E+03	   9.476701E+06	   3.551370E+07	   3.090366E+07	  -1.426541E+05
   16.8000	   4.647463E+00	   3.028746E+04	   8.138488E+03	   9.474853E+06	   3.550931E+07	   3.089493E+07	  -1.537853E+05
   16.9000	   4.587242E+00	   3.237572E+04	   8.698105E+03	   9.472924E+06	   3.550529E+07	   3.088403E+07	  -1.643331E+05
   17.0000	   4.522493E+00	   3.434255E+04	   9.225246E+03	   9.470924E+06	   3.550167E+07	   3.087098E+07	  -1.742532E+05
   17.1000	   4.453282E+00	   3.617979E+04	   9.717673E+03	   9.468859E+06	   3.549847E+07	   3.085582E+07	  -1.835042E+05
   17.2000	   4.379676E+00	   3.788040E+04	   1.017350E+04	   9.466737E+06	   3.549570E+07	   3.083859E+07	  -1.920504E+05
   17.3000	   4.301748E+00	   3.943727E+04	   1.059049E+04	   9.464567E+06	   3.549338E+07	   3.081935E+07	  -1.998560E+05
   17.4000	   4.219574E+00	   4.084372E+04	   1.096736E+04	   9.462357E+06	   3.549152E+07	   3.079818E+07	  -2.068877E+05
   17.5000	   4.133236E+00	   4.209386E+04	   1.130234E+04	   9.460116E+06	   3.549012E+07	   3.077516E+07	  -2.131164E+05
   17.6000	   4.042820E+00	   4.318196E+04	   1.159365E+04	   9.457853E+06	   3.548920E+07	   3.075038E+07	  -2.185137E+05
   17.7000	   3.948413E+00	   4.410347E+04	   1.184026E+04	   9.455577E+06	   3.548874E+07	   3.072397E+07	  -2.230576E+05
   17.8000	   3.850110E+00	   4.485401E+04	   1.204105E+04	   9.453297E+06	   3.548875E+07	   3.069603E+07	  -2.267272E+05
   17.9000	   3.748007E+00	   4.542967E+04	   1.219510E+04	   9.451022E+06	   3.548923E+07	   3.066671E+07	  -2.295042E+05
   18.0000	   3.642205E+00	   4.582771E+04	   1.230139E+04	   9.448761E+06	   3.549017E+07	   3.063615E+07	  -2.313761E+05
   18.1000	   3.532809E+00	   4.604539E+04	   1.235906E+04	   9.446524E+06	   3.549155E+07	   3.060449E+07	  -2.323303E+05
   18.2000	   3.419926E+00	   4.608107E+04	   1.236820E+04	   9.444318E+06	   3.549336E+07	   3.057192E+07	  -2.323610E+05
   18.3000	   3.303669E+00	   4.593387E+04	   1.232798E+04	   9.442154E+06	   3.549558E+07	   3.053859E+07	  -2.314652E+05
   18.4000	   3.184151E+00	   4.560309E+04	   1.223869E+04	   9.440041E+06	   3.549820E+07	   3.050469E+07	  -2.296415E+05
   18.5000	   3.061491E+00	   4.508943E+04	   1.210027E+04	   9.437986E+06	   3.550119E+07	   3.047040E+07	  -2.268958E+05
   18.6000	   2.935810E+00	   4.439362E+04	   1.191297E+04	   9.435999E+06	   3.550452E+07	   3.043592E+07	  -2.232337E+05
   18.7000	   2.807230E+00	   4.351754E+04	   1.167739E+04	   9.434087E+06	   3.550816E+07	   3.040145E+07	  -2.186672E+05
   18.8000	   2.675881E+00	   4.246364E+04	   1.139408E+04	   9.432259E+06	   3.551209E+07	   3.036718E+07	  -2.132108E+05
   18.9000	   2.541892E+00	   4.123519E+04	   1.106380E+04	   9.430522E+06	   3.551627E+07	   3.033331E+07	  -2.068834E+05
   19.0000	   2.405393E+00	   3.983587E+04	   1.068781E+04	   9.428884E+06	   3.552067E+07	   3.030006E+07	  -1.997060E+05
   19.1000	   2.266520E+00	   3.827041E+04	   1.026738E+04	   9.427351E+06	   3.552525E+07	   3.026761E+07	  -1.917049E+05
   19.2000	   2.125411E+00	   3.654402E+04	   9.803680E+03	   9.425930E+06	   3.552998E+07	   3.023618E+07	  -1.829085E+05
   19.3000	   1.982204E+00	   3.466274E+04	   9.298493E+03	   9.424627E+06	   3.553482E+07	   3.020596E+07	  -1.733494E+05
   19.4000	   1.837041E+00	   3.263305E+04	   8.753469E+03	   9.423448E+06	   3.553972E+07	   3.017714E+07	  -1.630625E+05
   19.5000	   1.690066E+00	   3.046227E+04	   8.170686E+03	   9.422398E+06	   3.554466E+07	   3.014991E+07	  -1.520867E+05
   19.6000	   1.541422E+00	   2.815838E+04	   7.552246E+03	   9.421482E+06	   3.554958E+07	   3.012446E+07	  -1.404641E+05
   19.7000	   1.391257E+00	   2.572964E+04	   6.900368E+03	   9.420704E+06	   3.555446E+07	   3.010094E+07	  -1.282381E+05
   19.8000	   1.239719E+00	   2.318518E+04	   6.217560E+03	   9.420066E+06	   3.555926E+07	   3.007952E+07	  -1.154561E+05
   19.9000	   1.086958E+00	   2.053456E+04	   5.506330E+03	   9.419573E+06	   3.556394E+07	   3.006036E+07	  -1.021678E+05
