
Predictions were generated on 16-May-2017 at 16:26:35 using OpenFAST (v8.17.01b-dev, 18-Jan-2017), compiled as a 64-bit application using double precision
 linked with  NWTC Subroutine Library (v2.11.00, 12-Nov-2016); ElastoDyn (v1.04.00a-bjj, 26-Jul-2016); InflowWind (v3.03.00, 26-Jul-2016); AeroDyn (v15.04.02a, 10-May-2017); ServoDyn (v1.06.00a-bjj, 26-Jul-2016)

Description from the FAST input file: FAST Certification Test #08: AOC 15/50 with many DOFs with fixed yaw error and steady wind. Many parameters are pure fiction.

Time      	Wind1VelX 	Wind1VelY 	Wind1VelZ 	LSSGagPxa 	TipDxb1   	TipDxb2   	TipDyb1   	TipDyb2   	RollDefl1 	RollDefl2 	PtchDefl1 	PtchDefl2 	Spn1ALxb1 	Spn1ALyb1 	HSShftV   	TTDspRoll 	TTDspPtch 	YawBrRVxp 	YawBrRVyp 	YawBrRAxp 	YawBrRAyp 	RootFxb1  	RootFyb1  	Spn2MLxb1 	Spn2MLyb1 	LSShftFya 	LSShftFza 	YawBrFxn  	YawBrFyn  	RtSpeed   	RtSkew    	B1N1Theta 	B1N2Theta 	B1N3Theta 	B1N4Theta 	B1N1AxInd 	B1N2AxInd 	B1N3AxInd 	B1N4AxInd 	B1N1Alpha 	B1N2Alpha 	B1N3Alpha 	B1N4Alpha 	B1N1Vrel  	B1N2Vrel  	B1N3Vrel  	B1N4Vrel  	B1N1Cl    	B1N2Cl    	B1N3Cl    	B1N4Cl    	B1N1Cd    	B1N2Cd    	B1N3Cd    	B1N4Cd    	B1N1Cm    	B1N2Cm    	B1N3Cm    	B1N4Cm    
(s)       	(m/s)     	(m/s)     	(m/s)     	(deg)     	(m)       	(m)       	(m)       	(m)       	(deg)     	(deg)     	(deg)     	(deg)     	(m/s^2)   	(m/s^2)   	(rpm)     	(deg)     	(deg)     	(deg/s)   	(deg/s)   	(deg/s^2) 	(deg/s^2) 	(kN)      	(kN)      	(kN·m)    	(kN·m)    	(kN)      	(kN)      	(kN)      	(kN)      	(rpm)     	(deg)     	(deg)     	(deg)     	(deg)     	(deg)     	(-)       	(-)       	(-)       	(-)       	(deg)     	(deg)     	(deg)     	(deg)     	(m/s)     	(m/s)     	(m/s)     	(m/s)     	(-)       	(-)       	(-)       	(-)       	(-)       	(-)       	(-)       	(-)       	(-)       	(-)       	(-)       	(-)       
   10.0000	 9.526E+00	-5.500E+00	 0.000E+00	 2.484E+02	 2.360E-03	-1.134E-02	 2.278E-03	-2.733E-03	-3.583E-02	 3.573E-02	-1.013E-01	-3.241E-01	 6.054E+00	 6.400E-01	 1.812E+03	 3.787E-02	 1.017E-01	-6.961E-03	-2.616E-02	-5.959E-01	-1.761E+00	 2.297E-01	 8.694E-01	-3.231E-01	 8.580E-02	 6.075E+00	 2.390E+00	 6.403E+00	-1.140E-01	 6.414E+01	 1.499E+01	 6.140E+00	 5.390E+00	 3.990E+00	 2.590E+00	 8.627E-02	 2.975E-01	 2.204E-01	 2.119E-01	 2.861E+01	 1.169E+01	 9.750E+00	 8.209E+00	 1.730E+01	 2.573E+01	 3.519E+01	 4.484E+01	 1.075E+00	 1.606E+00	 1.236E+00	 1.082E+00	 4.185E-01	 6.173E-02	 4.056E-02	 3.677E-02	 0.000E+00	 0.000E+00	 0.000E+00	 0.000E+00
   10.0500	 9.526E+00	-5.500E+00	 0.000E+00	 2.676E+02	-1.214E-03	-1.119E-02	 2.837E-03	-4.832E-03	-4.379E-02	 6.547E-02	-1.752E-01	-3.121E-01	 6.114E+00	 7.239E-01	 1.812E+03	 3.704E-02	 9.918E-02	-1.933E-02	-4.972E-02	 1.002E-01	 8.842E-01	 1.682E-01	 9.675E-01	-3.781E-01	-6.024E-02	 6.484E+00	 1.781E-01	 6.116E+00	-1.244E-01	 6.414E+01	 1.498E+01	 6.140E+00	 5.390E+00	 3.990E+00	 2.590E+00	 7.519E-02	 2.178E-01	 2.058E-01	 1.914E-01	 3.103E+01	 1.447E+01	 1.057E+01	 8.974E+00	 1.665E+01	 2.504E+01	 3.438E+01	 4.403E+01	 1.185E+00	 1.763E+00	 1.271E+00	 1.080E+00	 5.175E-01	 1.231E-01	 3.830E-02	 4.297E-02	 0.000E+00	 0.000E+00	 0.000E+00	 0.000E+00
   10.1000	 9.526E+00	-5.500E+00	 0.000E+00	 2.869E+02	-4.749E-03	-8.683E-03	 2.834E-03	-6.407E-03	-4.339E-02	 8.754E-02	-2.296E-01	-2.660E-01	 6.327E+00	 6.837E-01	 1.812E+03	 3.577E-02	 9.638E-02	-3.841E-02	-9.110E-02	-4.023E-01	-1.409E+00	 2.788E-02	 9.230E-01	-3.490E-01	-1.805E-01	 6.265E+00	-1.944E+00	 5.980E+00	-7.698E-02	 6.414E+01	 1.499E+01	 6.140E+00	 5.390E+00	 3.990E+00	 2.590E+00	 6.403E-02	 1.053E-01	 1.924E-01	 1.813E-01	 3.363E+01	 1.840E+01	 1.137E+01	 9.507E+00	 1.598E+01	 2.431E+01	 3.353E+01	 4.316E+01	 1.271E+00	 2.041E+00	 1.331E+00	 1.051E+00	 6.505E-01	 2.771E-01	 5.044E-02	 5.027E-02	 0.000E+00	 0.000E+00	 0.000E+00	 0.000E+00
   10.1500	 9.526E+00	-5.500E+00	 0.000E+00	 3.061E+02	-4.777E-03	-7.474E-03	 1.831E-03	-7.484E-03	-2.900E-02	 1.025E-01	-2.189E-01	-2.478E-01	 6.433E+00	 7.333E-01	 1.812E+03	 3.406E-02	 9.242E-02	-2.870E-02	-5.445E-02	-3.606E-01	-6.007E-01	-4.236E-02	 7.175E-01	-1.954E-01	-1.617E-01	 5.259E+00	-3.956E+00	 5.637E+00	-8.399E-02	 6.414E+01	 1.498E+01	 6.140E+00	 5.390E+00	 3.990E+00	 2.590E+00	 5.511E-02	 8.767E-02	 1.816E-01	 1.779E-01	 3.607E+01	 1.982E+01	 1.208E+01	 9.890E+00	 1.536E+01	 2.355E+01	 3.272E+01	 4.232E+01	 1.155E+00	 1.834E+00	 1.330E+00	 1.063E+00	 6.754E-01	 4.322E-01	 6.665E-02	 5.544E-02	 0.000E+00	 0.000E+00	 0.000E+00	 0.000E+00
   10.2000	 9.526E+00	-5.500E+00	 0.000E+00	 3.254E+02	-4.328E-03	-9.514E-03	 9.115E-04	-7.919E-03	-1.556E-02	 1.086E-01	-1.902E-01	-2.884E-01	 6.499E+00	 7.612E-01	 1.812E+03	 3.233E-02	 8.843E-02	-2.362E-02	-6.258E-02	 9.239E-01	 2.397E+00	-1.471E-01	 4.423E-01	-8.588E-02	-1.164E-01	 3.772E+00	-5.403E+00	 5.274E+00	 8.417E-03	 6.414E+01	 1.501E+01	 6.140E+00	 5.390E+00	 3.990E+00	 2.590E+00	 4.963E-02	 8.170E-02	 1.753E-01	 1.789E-01	 3.795E+01	 2.071E+01	 1.259E+01	 1.016E+01	 1.486E+01	 2.294E+01	 3.207E+01	 4.165E+01	 1.092E+00	 1.100E+00	 1.293E+00	 1.039E+00	 6.883E-01	 3.078E-01	 6.355E-02	 5.774E-02	 0.000E+00	 0.000E+00	 0.000E+00	 0.000E+00
   10.2500	 9.526E+00	-5.500E+00	 0.000E+00	 3.446E+02	-8.109E-03	-1.190E-02	-9.037E-04	-7.466E-03	 1.001E-02	 1.017E-01	-2.618E-01	-3.563E-01	 6.514E+00	 7.624E-01	 1.812E+03	 3.129E-02	 8.620E-02	-2.780E-02	-4.751E-02	-1.289E-02	 8.147E-01	-2.821E-01	-3.443E-03	 1.959E-01	-2.383E-01	 1.733E+00	-6.270E+00	 5.385E+00	 2.032E-02	 6.414E+01	 1.500E+01	 6.140E+00	 5.390E+00	 3.990E+00	 2.590E+00	 4.741E-02	 8.126E-02	 1.773E-01	 1.863E-01	 3.897E+01	 2.107E+01	 1.272E+01	 1.018E+01	 1.453E+01	 2.254E+01	 3.164E+01	 4.121E+01	 1.080E+00	 8.726E-01	 1.286E+00	 1.034E+00	 7.178E-01	 2.700E-01	 7.093E-02	 5.707E-02	 0.000E+00	 0.000E+00	 0.000E+00	 0.000E+00
   10.3000	 9.526E+00	-5.500E+00	 0.000E+00	 3.852E+00	-1.261E-02	-1.059E-02	-2.208E-03	-6.899E-03	 2.854E-02	 9.358E-02	-3.419E-01	-3.372E-01	 6.573E+00	 7.098E-01	 1.812E+03	 3.041E-02	 8.592E-02	-6.022E-03	 2.692E-02	 3.499E-01	 3.462E-01	-4.359E-01	-4.220E-01	 3.827E-01	-3.846E-01	-4.043E-01	-6.500E+00	 5.451E+00	 6.139E-02	 6.414E+01	 1.502E+01	 6.140E+00	 5.390E+00	 3.990E+00	 2.590E+00	 4.826E-02	 8.482E-02	 1.905E-01	 2.017E-01	 3.893E+01	 2.085E+01	 1.235E+01	 9.844E+00	 1.438E+01	 2.239E+01	 3.148E+01	 4.105E+01	 1.066E+00	 8.066E-01	 1.211E+00	 1.015E+00	 7.270E-01	 2.661E-01	 5.743E-02	 5.073E-02	 0.000E+00	 0.000E+00	 0.000E+00	 0.000E+00
   10.3500	 9.526E+00	-5.500E+00	 0.000E+00	 2.309E+01	-1.301E-02	-7.943E-03	-4.158E-03	-5.421E-03	 5.607E-02	 7.310E-02	-3.448E-01	-2.741E-01	 6.515E+00	 6.777E-01	 1.812E+03	 3.047E-02	 8.740E-02	 1.034E-02	 3.963E-02	 5.342E-01	 1.204E+00	-4.777E-01	-8.890E-01	 6.479E-01	-3.774E-01	-2.556E+00	-5.926E+00	 5.395E+00	 5.704E-02	 6.414E+01	 1.501E+01	 6.140E+00	 5.390E+00	 3.990E+00	 2.590E+00	 5.230E-02	 9.303E-02	 2.137E-01	 2.247E-01	 3.781E+01	 2.008E+01	 1.155E+01	 9.197E+00	 1.444E+01	 2.252E+01	 3.163E+01	 4.122E+01	 1.035E+00	 7.480E-01	 1.184E+00	 9.984E-01	 6.835E-01	 2.239E-01	 4.180E-02	 4.119E-02	 0.000E+00	 0.000E+00	 0.000E+00	 0.000E+00
   10.4000	 9.526E+00	-5.500E+00	 0.000E+00	 4.234E+01	-9.576E-03	-7.986E-03	-6.058E-03	-3.949E-03	 8.269E-02	 5.231E-02	-2.811E-01	-2.789E-01	 6.330E+00	 7.177E-01	 1.812E+03	 3.157E-02	 9.098E-02	 2.506E-02	 7.734E-02	-2.574E-01	-1.280E+00	-3.886E-01	-1.304E+00	 8.634E-01	-2.534E-01	-4.431E+00	-4.846E+00	 5.626E+00	 5.847E-02	 6.414E+01	 1.502E+01	 6.140E+00	 5.390E+00	 3.990E+00	 2.590E+00	 6.004E-02	 1.102E-01	 2.419E-01	 2.509E-01	 3.576E+01	 1.876E+01	 1.054E+01	 8.459E+00	 1.472E+01	 2.291E+01	 3.205E+01	 4.167E+01	 9.904E-01	 7.117E-01	 1.172E+00	 9.873E-01	 5.914E-01	 1.969E-01	 2.551E-02	 3.129E-02	 0.000E+00	 0.000E+00	 0.000E+00	 0.000E+00
   10.4500	 9.526E+00	-5.500E+00	 0.000E+00	 6.158E+01	-6.833E-03	-9.342E-03	-7.207E-03	-1.727E-03	 9.867E-02	 2.231E-02	-2.349E-01	-2.574E-01	 6.314E+00	 6.601E-01	 1.812E+03	 3.297E-02	 9.430E-02	 4.005E-02	 8.767E-02	 4.297E-01	 1.275E+00	-3.168E-01	-1.583E+00	 9.742E-01	-1.752E-01	-5.782E+00	-3.062E+00	 5.619E+00	 6.370E-03	 6.414E+01	 1.499E+01	 6.140E+00	 5.390E+00	 3.990E+00	 2.590E+00	 7.168E-02	 1.573E-01	 2.687E-01	 2.770E-01	 3.313E+01	 1.652E+01	 9.531E+00	 7.743E+00	 1.519E+01	 2.351E+01	 3.272E+01	 4.237E+01	 9.428E-01	 6.652E-01	 1.162E+00	 9.799E-01	 5.043E-01	 1.548E-01	 1.239E-02	 2.222E-02	 0.000E+00	 0.000E+00	 0.000E+00	 0.000E+00
   10.5000	 9.526E+00	-5.500E+00	 0.000E+00	 8.082E+01	-7.983E-03	-9.886E-03	-8.019E-03	-3.860E-05	 1.101E-01	-2.742E-03	-2.582E-01	-3.191E-01	 6.277E+00	 7.022E-01	 1.812E+03	 3.475E-02	 9.760E-02	 3.340E-02	 3.813E-02	 5.622E-01	 7.868E-01	-3.815E-01	-1.764E+00	 1.090E+00	-2.206E-01	-6.549E+00	-1.046E+00	 5.853E+00	-1.242E-02	 6.414E+01	 1.502E+01	 6.140E+00	 5.390E+00	 3.990E+00	 2.590E+00	 8.524E-02	 3.488E-01	 2.891E-01	 3.021E-01	 3.037E+01	 1.081E+01	 8.670E+00	 7.062E+00	 1.581E+01	 2.405E+01	 3.353E+01	 4.321E+01	 8.868E-01	 5.386E-01	 1.140E+00	 9.726E-01	 4.063E-01	 5.310E-02	 5.984E-03	 1.399E-02	 0.000E+00	 0.000E+00	 0.000E+00	 0.000E+00
   10.5500	 9.526E+00	-5.500E+00	 0.000E+00	 1.001E+02	-1.085E-02	-3.807E-03	-7.564E-03	 7.975E-04	 1.030E-01	-1.570E-02	-3.396E-01	-2.478E-01	 6.192E+00	 7.416E-01	 1.812E+03	 3.659E-02	 9.998E-02	 2.149E-02	 1.792E-02	-9.639E-01	-1.902E+00	-3.522E-01	-1.747E+00	 1.023E+00	-3.514E-01	-6.432E+00	 1.143E+00	 6.289E+00	-6.674E-02	 6.414E+01	 1.499E+01	 6.140E+00	 5.390E+00	 3.990E+00	 2.590E+00	 9.723E-02	 3.771E-01	 3.017E-01	 3.273E-01	 2.791E+01	 9.449E+00	 7.974E+00	 6.367E+00	 1.651E+01	 2.486E+01	 3.439E+01	 4.408E+01	 8.308E-01	 1.101E+00	 1.098E+00	 9.614E-01	 3.191E-01	 3.505E-03	 6.017E-03	 6.165E-03	 0.000E+00	 0.000E+00	 0.000E+00	 0.000E+00
   10.6000	 9.526E+00	-5.500E+00	 0.000E+00	 1.193E+02	-1.040E-02	 2.177E-03	-7.197E-03	 2.128E-03	 9.777E-02	-3.352E-02	-3.336E-01	-9.734E-02	 6.165E+00	 7.098E-01	 1.812E+03	 3.720E-02	 1.006E-01	 1.030E-02	 2.187E-02	-1.921E-01	-4.148E-01	-3.239E-01	-1.615E+00	 9.809E-01	-3.370E-01	-5.709E+00	 3.226E+00	 6.297E+00	-9.371E-02	 6.414E+01	 1.501E+01	 6.140E+00	 5.390E+00	 3.990E+00	 2.590E+00	 1.050E-01	 3.897E-01	 3.129E-01	 3.452E-01	 2.601E+01	 8.604E+00	 7.370E+00	 5.816E+00	 1.720E+01	 2.564E+01	 3.519E+01	 4.487E+01	 8.044E-01	 1.288E+00	 1.053E+00	 9.436E-01	 2.729E-01	-1.158E-02	 6.530E-03	 2.310E-03	 0.000E+00	 0.000E+00	 0.000E+00	 0.000E+00
   10.6500	 9.526E+00	-5.500E+00	 0.000E+00	 1.385E+02	-7.896E-03	 1.410E-03	-5.821E-03	 2.465E-03	 7.875E-02	-3.749E-02	-2.724E-01	-8.263E-02	 6.181E+00	 6.781E-01	 1.812E+03	 3.721E-02	 1.001E-01	-1.021E-02	-4.121E-02	-2.305E-01	-4.734E-01	-2.967E-01	-1.284E+00	 7.774E-01	-2.435E-01	-4.258E+00	 4.882E+00	 6.212E+00	-1.088E-01	 6.414E+01	 1.498E+01	 6.140E+00	 5.390E+00	 3.990E+00	 2.590E+00	 1.090E-01	 3.991E-01	 3.222E-01	 3.437E-01	 2.473E+01	 8.027E+00	 6.955E+00	 5.640E+00	 1.781E+01	 2.629E+01	 3.585E+01	 4.552E+01	 7.988E-01	 1.295E+00	 1.031E+00	 9.224E-01	 2.598E-01	-5.742E-03	 6.091E-03	 4.466E-03	 0.000E+00	 0.000E+00	 0.000E+00	 0.000E+00
   10.7000	 9.526E+00	-5.500E+00	 0.000E+00	 1.578E+02	-7.604E-03	-3.648E-03	-4.293E-03	 3.031E-03	 5.727E-02	-4.627E-02	-2.667E-01	-2.127E-01	 6.276E+00	 7.165E-01	 1.812E+03	 3.664E-02	 9.850E-02	-1.535E-02	-2.949E-02	-5.477E-01	-1.266E+00	-2.991E-01	-8.969E-01	 5.839E-01	-2.383E-01	-2.408E+00	 6.107E+00	 6.084E+00	-1.104E-01	 6.414E+01	 1.499E+01	 6.140E+00	 5.390E+00	 3.990E+00	 2.590E+00	 1.104E-01	 3.977E-01	 3.162E-01	 3.298E-01	 2.406E+01	 7.873E+00	 6.936E+00	 5.738E+00	 1.825E+01	 2.676E+01	 3.631E+01	 4.598E+01	 8.176E-01	 1.284E+00	 1.040E+00	 9.255E-01	 2.582E-01	 5.517E-03	 8.065E-03	 3.971E-03	 0.000E+00	 0.000E+00	 0.000E+00	 0.000E+00
   10.7500	 9.526E+00	-5.500E+00	 0.000E+00	 1.770E+02	-8.810E-03	-5.332E-03	-2.383E-03	 2.364E-03	 3.098E-02	-3.704E-02	-2.687E-01	-2.512E-01	 6.068E+00	 7.285E-01	 1.812E+03	 3.527E-02	 9.520E-02	-2.732E-02	-6.953E-02	 5.032E-01	 1.595E+00	-2.068E-01	-4.499E-01	 3.569E-01	-2.894E-01	-2.823E-01	 6.502E+00	 5.774E+00	-7.426E-02	 6.414E+01	 1.496E+01	 6.140E+00	 5.390E+00	 3.990E+00	 2.590E+00	 1.089E-01	 3.821E-01	 2.976E-01	 3.135E-01	 2.402E+01	 8.243E+00	 7.302E+00	 5.841E+00	 1.847E+01	 2.700E+01	 3.654E+01	 4.610E+01	 1.662E+00	 1.094E+00	 9.045E-01	 8.542E-01	 6.626E-01	 1.441E-02	 1.064E-02	 6.892E-03	 0.000E+00	 0.000E+00	 0.000E+00	 0.000E+00
   10.8000	 9.526E+00	-5.500E+00	 0.000E+00	 1.963E+02	-1.103E-02	-4.077E-03	-1.859E-04	 1.368E-03	-1.994E-03	-2.234E-02	-3.924E-01	-1.993E-01	 6.232E+00	 6.843E-01	 1.812E+03	 3.393E-02	 9.222E-02	-3.611E-02	-8.884E-02	-3.265E-02	-8.290E-01	-1.191E-01	 3.788E-02	 6.851E-02	-3.981E-01	 1.915E+00	 6.347E+00	 5.683E+00	-5.897E-02	 6.414E+01	 1.500E+01	 6.140E+00	 5.390E+00	 3.990E+00	 2.590E+00	 1.053E-01	 3.609E-01	 2.777E-01	 2.870E-01	 2.451E+01	 8.853E+00	 7.711E+00	 6.354E+00	 1.845E+01	 2.698E+01	 3.651E+01	 4.616E+01	 8.431E-01	 1.360E+00	 1.097E+00	 9.741E-01	 2.981E-01	 3.302E-02	 1.838E-02	 9.455E-03	 0.000E+00	 0.000E+00	 0.000E+00	 0.000E+00
   10.8500	 9.526E+00	-5.500E+00	 0.000E+00	 2.155E+02	-5.289E-03	-5.593E-03	 4.433E-04	-7.524E-06	-1.057E-02	-2.463E-03	-2.706E-01	-2.080E-01	 6.268E+00	 7.351E-01	 1.812E+03	 3.272E-02	 8.911E-02	-1.965E-02	-4.295E-02	-5.280E-01	-8.519E-01	 6.292E-02	 3.509E-01	-3.450E-02	-1.859E-01	 3.759E+00	 5.338E+00	 5.611E+00	-5.134E-03	 6.414E+01	 1.500E+01	 6.140E+00	 5.390E+00	 3.990E+00	 2.590E+00	 1.000E-01	 3.367E-01	 2.549E-01	 2.637E-01	 2.554E+01	 9.692E+00	 8.268E+00	 6.796E+00	 1.818E+01	 2.669E+01	 3.618E+01	 4.583E+01	 8.816E-01	 1.428E+00	 1.124E+00	 1.013E+00	 3.201E-01	 3.665E-02	 1.792E-02	 1.419E-02	 0.000E+00	 0.000E+00	 0.000E+00	 0.000E+00
   10.9000	 9.526E+00	-5.500E+00	 0.000E+00	 2.348E+02	 1.686E-03	-1.044E-02	 1.875E-03	-1.690E-03	-2.906E-02	 2.131E-02	-7.209E-02	-2.971E-01	 6.558E+00	 7.665E-01	 1.812E+03	 3.142E-02	 8.699E-02	-2.061E-02	-1.031E-02	 4.929E-01	 1.710E+00	 4.388E-02	 7.229E-01	-2.785E-01	 9.660E-02	 5.332E+00	 3.773E+00	 5.391E+00	 2.346E-02	 6.414E+01	 1.502E+01	 6.140E+00	 5.390E+00	 3.990E+00	 2.590E+00	 9.297E-02	 3.145E-01	 2.326E-01	 2.330E-01	 2.713E+01	 1.075E+01	 9.090E+00	 7.572E+00	 1.772E+01	 2.618E+01	 3.566E+01	 4.531E+01	 9.915E-01	 1.507E+00	 1.197E+00	 1.052E+00	 3.662E-01	 4.451E-02	 3.336E-02	 2.303E-02	 0.000E+00	 0.000E+00	 0.000E+00	 0.000E+00
   10.9500	 9.526E+00	-5.500E+00	 0.000E+00	 2.540E+02	 1.297E-03	-1.352E-02	 2.369E-03	-3.081E-03	-3.623E-02	 4.074E-02	-8.808E-02	-3.621E-01	 6.548E+00	 7.595E-01	 1.812E+03	 3.081E-02	 8.742E-02	-6.449E-03	 1.149E-02	 2.121E-01	-3.510E-02	 6.082E-02	 8.974E-01	-3.189E-01	 6.507E-02	 6.212E+00	 1.811E+00	 5.475E+00	 5.680E-02	 6.414E+01	 1.501E+01	 6.140E+00	 5.390E+00	 3.990E+00	 2.590E+00	 8.335E-02	 2.893E-01	 2.161E-01	 2.048E-01	 2.924E+01	 1.210E+01	 9.988E+00	 8.451E+00	 1.711E+01	 2.552E+01	 3.496E+01	 4.462E+01	 1.105E+00	 1.639E+00	 1.243E+00	 1.056E+00	 4.422E-01	 6.690E-02	 4.015E-02	 3.666E-02	 0.000E+00	 0.000E+00	 0.000E+00	 0.000E+00
   11.0000	 9.526E+00	-5.500E+00	 0.000E+00	 2.732E+02	-4.106E-03	-1.145E-02	 3.070E-03	-5.313E-03	-4.713E-02	 7.223E-02	-2.337E-01	-3.170E-01	 6.470E+00	 7.510E-01	 1.812E+03	 3.100E-02	 8.893E-02	 1.689E-02	 6.426E-02	 4.039E-01	 1.127E+00	 8.930E-02	 9.771E-01	-3.916E-01	-1.747E-01	 6.496E+00	-4.104E-01	 5.481E+00	 4.945E-02	 6.414E+01	 1.501E+01	 6.140E+00	 5.390E+00	 3.990E+00	 2.590E+00	 7.212E-02	 1.470E-01	 2.016E-01	 1.880E-01	 3.171E+01	 1.655E+01	 1.081E+01	 9.129E+00	 1.643E+01	 2.486E+01	 3.413E+01	 4.377E+01	 1.210E+00	 1.955E+00	 1.292E+00	 1.083E+00	 5.501E-01	 2.126E-01	 4.162E-02	 4.722E-02	 0.000E+00	 0.000E+00	 0.000E+00	 0.000E+00
   11.0500	 9.526E+00	-5.500E+00	 0.000E+00	 2.925E+02	-6.472E-03	-7.798E-03	 2.678E-03	-6.684E-03	-4.145E-02	 9.143E-02	-2.730E-01	-2.491E-01	 6.355E+00	 7.204E-01	 1.812E+03	 3.187E-02	 9.173E-02	 1.897E-02	 4.230E-02	 5.198E-01	 7.778E-01	 5.465E-03	 8.760E-01	-3.111E-01	-2.438E-01	 6.035E+00	-2.556E+00	 5.473E+00	 4.157E-02	 6.414E+01	 1.501E+01	 6.140E+00	 5.390E+00	 3.990E+00	 2.590E+00	 6.154E-02	 9.993E-02	 1.907E-01	 1.812E-01	 3.427E+01	 1.875E+01	 1.150E+01	 9.558E+00	 1.576E+01	 2.406E+01	 3.327E+01	 4.290E+01	 1.280E+00	 2.012E+00	 1.334E+00	 1.047E+00	 6.870E-01	 3.155E-01	 5.500E-02	 4.829E-02	 0.000E+00	 0.000E+00	 0.000E+00	 0.000E+00
   11.1000	 9.526E+00	-5.500E+00	 0.000E+00	 3.117E+02	-4.824E-03	-7.106E-03	 1.627E-03	-7.755E-03	-2.594E-02	 1.063E-01	-2.124E-01	-2.429E-01	 6.341E+00	 6.638E-01	 1.812E+03	 3.339E-02	 9.510E-02	 2.814E-02	 5.459E-02	-5.178E-01	-2.340E+00	-8.027E-02	 6.589E-01	-1.685E-01	-1.491E-01	 4.899E+00	-4.459E+00	 5.912E+00	-1.085E-02	 6.414E+01	 1.501E+01	 6.140E+00	 5.390E+00	 3.990E+00	 2.590E+00	 5.354E-02	 8.629E-02	 1.817E-01	 1.796E-01	 3.657E+01	 2.001E+01	 1.213E+01	 9.888E+00	 1.517E+01	 2.333E+01	 3.249E+01	 4.209E+01	 1.110E+00	 1.518E+00	 1.293E+00	 1.061E+00	 6.596E-01	 3.681E-01	 6.004E-02	 5.651E-02	 0.000E+00	 0.000E+00	 0.000E+00	 0.000E+00
   11.1500	 9.526E+00	-5.500E+00	 0.000E+00	 3.310E+02	-4.476E-03	-9.780E-03	 4.203E-04	-7.787E-03	-8.533E-03	 1.064E-01	-1.885E-01	-3.075E-01	 6.258E+00	 7.228E-01	 1.812E+03	 3.502E-02	 9.733E-02	 4.241E-02	 6.230E-02	-2.841E-01	-4.822E-01	-1.562E-01	 3.250E-01	-1.554E-02	-1.165E-01	 3.232E+00	-5.726E+00	 5.962E+00	-1.233E-02	 6.414E+01	 1.501E+01	 6.140E+00	 5.390E+00	 3.990E+00	 2.590E+00	 4.896E-02	 8.181E-02	 1.772E-01	 1.820E-01	 3.825E+01	 2.077E+01	 1.256E+01	 1.012E+01	 1.473E+01	 2.279E+01	 3.191E+01	 4.149E+01	 1.086E+00	 1.015E+00	 1.303E+00	 1.038E+00	 6.930E-01	 2.892E-01	 6.474E-02	 5.614E-02	 0.000E+00	 0.000E+00	 0.000E+00	 0.000E+00
   11.2000	 9.526E+00	-5.500E+00	 0.000E+00	 3.502E+02	-8.106E-03	-1.105E-02	-1.458E-03	-7.479E-03	 1.784E-02	 1.020E-01	-2.602E-01	-3.351E-01	 6.219E+00	 7.595E-01	 1.812E+03	 3.622E-02	 9.867E-02	 1.246E-02	 1.685E-02	 8.785E-02	 1.213E+00	-2.691E-01	-1.391E-01	 2.668E-01	-2.367E-01	 1.086E+00	-6.451E+00	 6.047E+00	-7.017E-02	 6.414E+01	 1.500E+01	 6.140E+00	 5.390E+00	 3.990E+00	 2.590E+00	 4.749E-02	 8.214E-02	 1.808E-01	 1.908E-01	 3.902E+01	 2.102E+01	 1.263E+01	 1.008E+01	 1.446E+01	 2.246E+01	 3.156E+01	 4.113E+01	 1.075E+00	 8.462E-01	 1.282E+00	 1.029E+00	 7.177E-01	 2.627E-01	 7.134E-02	 5.526E-02	 0.000E+00	 0.000E+00	 0.000E+00	 0.000E+00
   11.2500	 9.526E+00	-5.500E+00	 0.000E+00	 9.450E+00	-1.171E-02	-9.050E-03	-2.779E-03	-6.535E-03	 3.637E-02	 8.862E-02	-3.317E-01	-3.014E-01	 6.128E+00	 7.283E-01	 1.812E+03	 3.682E-02	 9.986E-02	 4.852E-03	 9.506E-04	-4.526E-01	-1.583E+00	-3.594E-01	-5.605E-01	 4.481E-01	-3.568E-01	-1.076E+00	-6.429E+00	 6.283E+00	-8.597E-02	 6.414E+01	 1.499E+01	 6.140E+00	 5.390E+00	 3.990E+00	 2.590E+00	 4.908E-02	 8.653E-02	 1.960E-01	 2.075E-01	 3.872E+01	 2.069E+01	 1.217E+01	 9.691E+00	 1.438E+01	 2.240E+01	 3.150E+01	 4.107E+01	 1.061E+00	 7.950E-01	 1.207E+00	 1.012E+00	 7.246E-01	 2.605E-01	 5.352E-02	 4.848E-02	 0.000E+00	 0.000E+00	 0.000E+00	 0.000E+00
   11.3000	 9.526E+00	-5.500E+00	 0.000E+00	 2.869E+01	-1.105E-02	-7.443E-03	-4.961E-03	-5.012E-03	 6.731E-02	 6.725E-02	-3.086E-01	-2.686E-01	 6.280E+00	 7.327E-01	 1.812E+03	 3.671E-02	 9.887E-02	-3.395E-03	-1.576E-02	 7.605E-02	 8.909E-01	-4.101E-01	-1.043E+00	 7.407E-01	-3.102E-01	-3.195E+00	-5.654E+00	 6.097E+00	-1.134E-01	 6.414E+01	 1.498E+01	 6.140E+00	 5.390E+00	 3.990E+00	 2.590E+00	 5.393E-02	 9.609E-02	 2.202E-01	 2.306E-01	 3.736E+01	 1.982E+01	 1.133E+01	 9.047E+00	 1.452E+01	 2.262E+01	 3.173E+01	 4.133E+01	 1.023E+00	 7.384E-01	 1.184E+00	 9.971E-01	 6.583E-01	 2.184E-01	 3.793E-02	 3.918E-02	 0.000E+00	 0.000E+00	 0.000E+00	 0.000E+00
   11.3500	 9.526E+00	-5.500E+00	 0.000E+00	 4.793E+01	-8.264E-03	-8.423E-03	-6.473E-03	-3.397E-03	 8.850E-02	 4.435E-02	-2.567E-01	-2.950E-01	 6.260E+00	 7.501E-01	 1.812E+03	 3.617E-02	 9.763E-02	-2.489E-02	-6.315E-02	-4.044E-01	-1.468E+00	-3.511E-01	-1.405E+00	 8.985E-01	-2.141E-01	-4.899E+00	-4.361E+00	 6.044E+00	-8.258E-02	 6.414E+01	 1.499E+01	 6.140E+00	 5.390E+00	 3.990E+00	 2.590E+00	 6.258E-02	 1.162E-01	 2.478E-01	 2.561E-01	 3.516E+01	 1.839E+01	 1.034E+01	 8.334E+00	 1.486E+01	 2.308E+01	 3.223E+01	 4.186E+01	 9.811E-01	 7.061E-01	 1.173E+00	 9.871E-01	 5.731E-01	 1.903E-01	 2.255E-02	 2.968E-02	 0.000E+00	 0.000E+00	 0.000E+00	 0.000E+00
   11.4000	 9.526E+00	-5.500E+00	 0.000E+00	 6.718E+01	-7.266E-03	-1.071E-02	-7.545E-03	-9.261E-04	 1.034E-01	 9.516E-03	-2.456E-01	-3.435E-01	 6.317E+00	 7.496E-01	 1.812E+03	 3.511E-02	 9.498E-02	-1.822E-02	-3.564E-02	-4.961E-01	-1.160E+00	-3.325E-01	-1.663E+00	 1.021E+00	-1.954E-01	-6.116E+00	-2.464E+00	 5.820E+00	-1.052E-01	 6.414E+01	 1.498E+01	 6.140E+00	 5.390E+00	 3.990E+00	 2.590E+00	 7.499E-02	 1.883E-01	 2.736E-01	 2.819E-01	 3.244E+01	 1.550E+01	 9.347E+00	 7.621E+00	 1.538E+01	 2.370E+01	 3.295E+01	 4.261E+01	 9.290E-01	 6.485E-01	 1.160E+00	 9.789E-01	 4.796E-01	 1.373E-01	 1.050E-02	 2.067E-02	 0.000E+00	 0.000E+00	 0.000E+00	 0.000E+00
   11.4500	 9.526E+00	-5.500E+00	 0.000E+00	 8.642E+01	-9.538E-03	-7.707E-03	-7.924E-03	 2.856E-05	 1.086E-01	-2.834E-03	-2.915E-01	-2.438E-01	 6.463E+00	 6.907E-01	 1.812E+03	 3.382E-02	 9.162E-02	-1.792E-02	-5.444E-02	 5.873E-01	 1.904E+00	-4.187E-01	-1.773E+00	 1.078E+00	-2.830E-01	-6.576E+00	-4.403E-01	 5.478E+00	-2.606E-02	 6.414E+01	 1.501E+01	 6.140E+00	 5.390E+00	 3.990E+00	 2.590E+00	 8.859E-02	 3.594E-01	 2.929E-01	 3.076E-01	 2.970E+01	 1.038E+01	 8.491E+00	 6.911E+00	 1.602E+01	 2.429E+01	 3.378E+01	 4.346E+01	 8.711E-01	 7.639E-01	 1.132E+00	 9.697E-01	 3.817E-01	 3.609E-02	 4.996E-03	 1.214E-02	 0.000E+00	 0.000E+00	 0.000E+00	 0.000E+00
   11.5000	 9.526E+00	-5.500E+00	 0.000E+00	 1.057E+02	-1.176E-02	-9.428E-04	-7.462E-03	 1.208E-03	 1.017E-01	-2.031E-02	-3.511E-01	-1.469E-01	 6.495E+00	 7.133E-01	 1.812E+03	 3.274E-02	 8.923E-02	-3.103E-02	-5.376E-02	 6.405E-04	 8.504E-01	-4.178E-01	-1.720E+00	 1.021E+00	-3.770E-01	-6.270E+00	 1.765E+00	 5.547E+00	-1.422E-02	 6.414E+01	 1.500E+01	 6.140E+00	 5.390E+00	 3.990E+00	 2.590E+00	 9.976E-02	 3.808E-01	 3.039E-01	 3.331E-01	 2.734E+01	 9.209E+00	 7.825E+00	 6.203E+00	 1.672E+01	 2.510E+01	 3.464E+01	 4.432E+01	 8.194E-01	 1.167E+00	 1.087E+00	 9.572E-01	 3.010E-01	-3.537E-03	 6.233E-03	 4.518E-03	 0.000E+00	 0.000E+00	 0.000E+00	 0.000E+00
   11.5500	 9.526E+00	-5.500E+00	 0.000E+00	 1.249E+02	-1.035E-02	 1.846E-03	-6.845E-03	 2.258E-03	 9.283E-02	-3.582E-02	-3.320E-01	-1.217E-01	 6.448E+00	 7.408E-01	 1.812E+03	 3.158E-02	 8.822E-02	-1.510E-02	 1.083E-03	 2.421E-01	 1.100E-01	-3.449E-01	-1.535E+00	 9.319E-01	-3.332E-01	-5.357E+00	 3.705E+00	 5.588E+00	 3.214E-02	 6.414E+01	 1.502E+01	 6.140E+00	 5.390E+00	 3.990E+00	 2.590E+00	 1.065E-01	 3.925E-01	 3.164E-01	 3.467E-01	 2.558E+01	 8.421E+00	 7.227E+00	 5.728E+00	 1.739E+01	 2.585E+01	 3.540E+01	 4.507E+01	 7.993E-01	 1.303E+00	 1.046E+00	 9.352E-01	 2.679E-01	-1.135E-02	 6.054E-03	 2.658E-03	 0.000E+00	 0.000E+00	 0.000E+00	 0.000E+00
   11.6000	 9.526E+00	-5.500E+00	 0.000E+00	 1.441E+02	-7.897E-03	-1.175E-03	-5.343E-03	 2.724E-03	 7.194E-02	-4.169E-02	-2.755E-01	-1.543E-01	 6.311E+00	 7.279E-01	 1.812E+03	 3.109E-02	 8.835E-02	-2.705E-03	 1.280E-02	 4.497E-01	 1.189E+00	-3.836E-01	-1.167E+00	 7.153E-01	-2.355E-01	-3.752E+00	 5.255E+00	 5.454E+00	 3.719E-02	 6.414E+01	 1.500E+01	 6.140E+00	 5.390E+00	 3.990E+00	 2.590E+00	 1.098E-01	 4.012E-01	 3.228E-01	 3.411E-01	 2.444E+01	 7.896E+00	 6.887E+00	 5.631E+00	 1.795E+01	 2.645E+01	 3.600E+01	 4.568E+01	 8.045E-01	 1.286E+00	 1.028E+00	 9.193E-01	 2.574E-01	-3.755E-03	 6.308E-03	 4.809E-03	 0.000E+00	 0.000E+00	 0.000E+00	 0.000E+00
   11.6500	 9.526E+00	-5.500E+00	 0.000E+00	 1.634E+02	-8.108E-03	-5.668E-03	-3.847E-03	 3.025E-03	 5.086E-02	-4.590E-02	-2.821E-01	-2.411E-01	 6.413E+00	 7.851E-01	 1.812E+03	 3.145E-02	 9.044E-02	 9.921E-03	 4.366E-02	-1.922E-01	-1.267E+00	-2.874E-01	-7.857E-01	 5.316E-01	-2.612E-01	-1.868E+00	 6.292E+00	 5.592E+00	 5.945E-02	 6.414E+01	 1.502E+01	 6.140E+00	 5.390E+00	 3.990E+00	 2.590E+00	 1.311E-01	 3.960E-01	 3.135E-01	 3.250E-01	 2.079E+01	 7.866E+00	 6.948E+00	 5.777E+00	 1.735E+01	 2.685E+01	 3.640E+01	 4.607E+01	 9.609E-01	 1.285E+00	 1.044E+00	 9.277E-01	 2.632E-01	 7.778E-03	 8.328E-03	 4.604E-03	 0.000E+00	 0.000E+00	 0.000E+00	 0.000E+00
   11.7000	 9.526E+00	-5.500E+00	 0.000E+00	 1.826E+02	-9.597E-03	-5.931E-03	-1.581E-03	 2.105E-03	 2.015E-02	-3.306E-02	-2.669E-01	-2.494E-01	 6.725E+00	 7.804E-01	 1.812E+03	 3.224E-02	 9.242E-02	 2.957E-02	 6.778E-02	 3.591E-01	 1.129E+00	-4.153E-01	-2.835E-01	 2.464E-01	-2.937E-01	 3.597E-01	 6.537E+00	 5.521E+00	 1.695E-02	 6.414E+01	 1.499E+01	 6.140E+00	 5.390E+00	 3.990E+00	 2.590E+00	 1.085E-01	 3.811E-01	 2.980E-01	 3.037E-01	 2.402E+01	 8.220E+00	 7.224E+00	 6.083E+00	 1.847E+01	 2.699E+01	 3.653E+01	 4.619E+01	 1.210E+00	 1.394E+00	 1.072E+00	 9.382E-01	 4.592E-01	 4.859E-02	 2.427E-02	 1.210E-02	 0.000E+00	 0.000E+00	 0.000E+00	 0.000E+00
   11.7500	 9.526E+00	-5.500E+00	 0.000E+00	 2.019E+02	-9.447E-03	-4.200E-03	-3.830E-05	 1.143E-03	-2.411E-03	-1.900E-02	-2.976E-01	-1.950E-01	 6.496E+00	 7.424E-01	 1.812E+03	 3.352E-02	 9.472E-02	 2.789E-02	 3.113E-02	 7.716E-01	 1.523E+00	-3.197E-01	 1.307E-01	 5.978E-02	-2.875E-01	 2.462E+00	 6.147E+00	 5.641E+00	 1.648E-02	 6.414E+01	 1.502E+01	 6.140E+00	 5.390E+00	 3.990E+00	 2.590E+00	 1.041E-01	 3.543E-01	 2.715E-01	 2.809E-01	 2.471E+01	 9.059E+00	 7.853E+00	 6.450E+00	 1.838E+01	 2.692E+01	 3.644E+01	 4.609E+01	 8.457E-01	 1.384E+00	 1.112E+00	 9.875E-01	 3.017E-01	 3.411E-02	 1.762E-02	 1.031E-02	 0.000E+00	 0.000E+00	 0.000E+00	 0.000E+00
   11.8000	 9.526E+00	-5.500E+00	 0.000E+00	 2.211E+02	-3.355E-03	-6.316E-03	 8.822E-04	-6.173E-04	-1.674E-02	 5.958E-03	-2.330E-01	-2.279E-01	 6.151E+00	 6.973E-01	 1.812E+03	 3.516E-02	 9.694E-02	 1.993E-02	 1.791E-02	-7.078E-01	-1.310E+00	 1.184E-01	 4.707E-01	-1.081E-01	-1.155E-01	 4.289E+00	 4.918E+00	 6.089E+00	-3.569E-02	 6.414E+01	 1.499E+01	 6.140E+00	 5.390E+00	 3.990E+00	 2.590E+00	 9.820E-02	 3.292E-01	 2.456E-01	 2.551E-01	 2.593E+01	 1.002E+01	 8.574E+00	 6.999E+00	 1.805E+01	 2.656E+01	 3.605E+01	 4.569E+01	 9.164E-01	 1.454E+00	 1.167E+00	 1.022E+00	 3.323E-01	 4.188E-02	 2.733E-02	 1.712E-02	 0.000E+00	 0.000E+00	 0.000E+00	 0.000E+00
   11.8500	 9.526E+00	-5.500E+00	 0.000E+00	 2.404E+02	 1.968E-03	-1.042E-02	 2.163E-03	-2.128E-03	-3.419E-02	 2.737E-02	-1.083E-01	-3.006E-01	 6.109E+00	 6.650E-01	 1.812E+03	 3.598E-02	 9.821E-02	 1.714E-02	 3.889E-02	-1.630E-01	-5.159E-01	 2.227E-01	 8.016E-01	-3.191E-01	 7.162E-02	 5.700E+00	 3.232E+00	 6.170E+00	-6.259E-02	 6.414E+01	 1.501E+01	 6.140E+00	 5.390E+00	 3.990E+00	 2.590E+00	 9.050E-02	 3.085E-01	 2.280E-01	 2.245E-01	 2.768E+01	 1.108E+01	 9.316E+00	 7.812E+00	 1.754E+01	 2.599E+01	 3.547E+01	 4.513E+01	 1.024E+00	 1.529E+00	 1.208E+00	 1.064E+00	 3.847E-01	 4.737E-02	 3.574E-02	 2.796E-02	 0.000E+00	 0.000E+00	 0.000E+00	 0.000E+00
   11.9000	 9.526E+00	-5.500E+00	 0.000E+00	 2.596E+02	 8.744E-04	-1.189E-02	 2.526E-03	-3.858E-03	-3.839E-02	 5.173E-02	-9.478E-02	-3.278E-01	 6.297E+00	 7.200E-01	 1.812E+03	 3.640E-02	 9.870E-02	 8.827E-04	-1.422E-02	-7.312E-02	-9.847E-02	 7.241E-02	 9.339E-01	-3.381E-01	 4.780E-02	 6.375E+00	 1.130E+00	 6.118E+00	-8.841E-02	 6.414E+01	 1.498E+01	 6.140E+00	 5.390E+00	 3.990E+00	 2.590E+00	 8.014E-02	 2.775E-01	 2.125E-01	 1.992E-01	 2.994E+01	 1.259E+01	 1.019E+01	 8.657E+00	 1.692E+01	 2.530E+01	 3.472E+01	 4.438E+01	 1.139E+00	 1.675E+00	 1.251E+00	 1.065E+00	 4.710E-01	 7.485E-02	 3.943E-02	 3.633E-02	 0.000E+00	 0.000E+00	 0.000E+00	 0.000E+00
   11.9500	 9.526E+00	-5.500E+00	 0.000E+00	 2.788E+02	-4.003E-03	-9.630E-03	 3.038E-03	-5.889E-03	-4.628E-02	 8.027E-02	-2.158E-01	-2.844E-01	 6.288E+00	 6.602E-01	 1.812E+03	 3.648E-02	 9.856E-02	-2.732E-03	-5.516E-03	-6.346E-01	-1.599E+00	 5.902E-02	 9.705E-01	-3.859E-01	-1.548E-01	 6.483E+00	-1.081E+00	 6.096E+00	-1.013E-01	 6.414E+01	 1.499E+01	 6.140E+00	 5.390E+00	 3.990E+00	 2.590E+00	 6.865E-02	 1.217E-01	 1.975E-01	 1.848E-01	 3.251E+01	 1.754E+01	 1.106E+01	 9.297E+00	 1.625E+01	 2.464E+01	 3.388E+01	 4.352E+01	 1.240E+00	 2.061E+00	 1.313E+00	 1.086E+00	 5.919E-01	 2.444E-01	 4.501E-02	 5.205E-02	 0.000E+00	 0.000E+00	 0.000E+00	 0.000E+00
   12.0000	 9.526E+00	-5.500E+00	 0.000E+00	 2.981E+02	-5.338E-03	-7.135E-03	 2.303E-03	-7.082E-03	-3.615E-02	 9.693E-02	-2.498E-01	-2.398E-01	 6.324E+00	 7.687E-01	 1.812E+03	 3.577E-02	 9.654E-02	-1.346E-02	-3.853E-02	 4.194E-01	 1.456E+00	 2.450E-02	 8.102E-01	-2.635E-01	-1.989E-01	 5.724E+00	-3.126E+00	 5.827E+00	-8.539E-02	 6.414E+01	 1.496E+01	 6.140E+00	 5.390E+00	 3.990E+00	 2.590E+00	 5.856E-02	 9.314E-02	 1.859E-01	 1.791E-01	 3.507E+01	 1.928E+01	 1.179E+01	 9.724E+00	 1.560E+01	 2.385E+01	 3.305E+01	 4.266E+01	 1.245E+00	 1.974E+00	 1.347E+00	 1.057E+00	 7.000E-01	 3.742E-01	 6.277E-02	 5.138E-02	 0.000E+00	 0.000E+00	 0.000E+00	 0.000E+00
   12.0500	 9.526E+00	-5.500E+00	 0.000E+00	 3.173E+02	-3.871E-03	-8.032E-03	 1.325E-03	-7.945E-03	-2.167E-02	 1.089E-01	-1.932E-01	-2.629E-01	 6.308E+00	 7.110E-01	 1.812E+03	 3.489E-02	 9.448E-02	-2.837E-02	-7.687E-02	 1.209E-01	-4.785E-01	-6.671E-02	 5.760E-01	-1.408E-01	-1.140E-01	 4.453E+00	-4.916E+00	 5.783E+00	-7.491E-02	 6.414E+01	 1.500E+01	 6.140E+00	 5.390E+00	 3.990E+00	 2.590E+00	 5.155E-02	 8.352E-02	 1.777E-01	 1.783E-01	 3.723E+01	 2.037E+01	 1.238E+01	 1.005E+01	 1.505E+01	 2.317E+01	 3.231E+01	 4.189E+01	 1.097E+00	 1.297E+00	 1.284E+00	 1.052E+00	 6.701E-01	 3.364E-01	 6.317E-02	 5.834E-02	 0.000E+00	 0.000E+00	 0.000E+00	 0.000E+00