
FAST Summary File

Predictions were generated on 01-Nov-2022 at 15:03:37 using OpenFAST, compiled as a 64-bit application using double precision at commit v3.3.0-248-g69252a6a
  compiled with
    NWTC Subroutine Library
    ElastoDyn (unknown version, unknown date) [not called]
    BeamDyn (unknown version, unknown date) [not called]
    SED (v1.00.00, 15-Feb-2022)
    InflowWind
    AeroDyn14 (unknown version, unknown date) [not called]
    AeroDyn
    AeroDisk (unknown version, unknown date) [not called]
    ServoDyn
    HydroDyn (unknown version, unknown date) [not called]
    SubDyn (unknown version, unknown date) [not called]
    ExtPtfm_MCKF (unknown version, unknown date) [not called]
    MAP (unknown version, unknown date) [not called]
    FEAMooring (unknown version, unknown date) [not called]
    MoorDyn (unknown version, unknown date) [not called]
    OrcaFlexInterface (unknown version, unknown date) [not called]
    IceFloe (unknown version, unknown date) [not called]
    IceDyn (unknown version, unknown date) [not called]


Modeling a land-based turbine
Description from the FAST input file: 
  FAST Certification Test #18: NREL 5.0 MW Baseline Wind Turbine (Onshore)

Interpolation order for input/output time histories: 2 (quadratic)
Number of correction iterations:  0


   Requested Time Steps  
  -------------------------------------------------
  Component          Time Step (s)    Subcycles (-)
  -----------------  ---------------  -------------
  FAST (glue code)    6.250E-03
  InflowWind          6.250E-03              1
  AeroDyn             6.250E-03              1
  ServoDyn            6.250E-03              1
  SED                 6.250E-03              1
  FAST output files   6.250E-03              1


   Requested Channels in FAST Output File(s)  
  --------------------------------------------
  Number  Name                  Units                 Generated by
  ------  --------------------  --------------------  ------------
       1  Time                  (s)                   OpenFAST
       2  Wind1VelX             (m/s)                 InflowWind
       3  Wind1VelY             (m/s)                 InflowWind
       4  Wind1VelZ             (m/s)                 InflowWind
       5  BlPitch1              (deg)                 ServoDyn
       6  BlPitch2              (deg)                 ServoDyn
       7  BlPitch3              (deg)                 SED
       8  Azimuth               (deg)                 SED
       9  RotSpeed              (rpm)                 SED
      10  RotAcc                (deg/s^2)             SED
      11  GenSpeed              (rpm)                 SED
      12  GenAcc                (deg/s^2)             SED
      13  Yaw                   (deg)                 SED
      14  YawRate               (deg/s)               SED
      15  RotPwr                (kW)                  SED
      16  RotTorq               (kN-m)                SED
      17  GenPwr                (kW)                  SED
      18  GenTq                 (kN-m)                SED
