# vtk DataFile Version 2.0
SourcePanels  - Sphere - n1=17 - n2=15
ASCII
 
DATASET POLYDATA
POINTS 272 double
 -0.43711388E-007 -0.00000000E+000  0.40000000E+001
 -0.40759655E-007 -0.15790375E-007  0.40000000E+001
 -0.32303106E-007 -0.29448170E-007  0.40000000E+001
 -0.19483842E-007 -0.39128832E-007  0.40000000E+001
 -0.40331787E-008 -0.43524921E-007  0.40000000E+001
  0.11962188E-007 -0.42042736E-007  0.40000000E+001
  0.26341999E-007 -0.34882440E-007  0.40000000E+001
  0.37164174E-007 -0.23011081E-007  0.40000000E+001
  0.42967120E-007 -0.80319467E-008  0.40000000E+001
  0.42967120E-007  0.80319440E-008  0.40000000E+001
  0.37164174E-007  0.23011077E-007  0.40000000E+001
  0.26342001E-007  0.34882436E-007  0.40000000E+001
  0.11962185E-007  0.42042736E-007  0.40000000E+001
 -0.40331702E-008  0.43524924E-007  0.40000000E+001
 -0.19483844E-007  0.39128832E-007  0.40000000E+001
 -0.32303099E-007  0.29448179E-007  0.40000000E+001
 -0.40759655E-007  0.15790377E-007  0.40000000E+001
  0.20791166E+000  0.00000000E+000  0.40218525E+001
  0.19387184E+000  0.75106353E-001  0.40218525E+001
  0.15364857E+000  0.14006917E+000  0.40218525E+001
  0.92674196E-001  0.18611488E+000  0.40218525E+001
  0.19183669E-001  0.20702474E+000  0.40218525E+001
 -0.56897718E-001  0.19997476E+000  0.40218525E+001
 -0.12529477E+000  0.16591708E+000  0.40218525E+001
 -0.17677006E+000  0.10945138E+000  0.40218525E+001
 -0.20437156E+000  0.38203668E-001  0.40218525E+001
 -0.20437156E+000 -0.38203657E-001  0.40218525E+001
 -0.17677006E+000 -0.10945137E+000  0.40218525E+001
 -0.12529479E+000 -0.16591707E+000  0.40218525E+001
 -0.56897707E-001 -0.19997476E+000  0.40218525E+001
  0.19183630E-001 -0.20702475E+000  0.40218525E+001
  0.92674203E-001 -0.18611488E+000  0.40218525E+001
  0.15364854E+000 -0.14006922E+000  0.40218525E+001
  0.19387184E+000 -0.75106360E-001  0.40218525E+001
  0.40673661E+000  0.00000000E+000  0.40864544E+001
  0.37927058E+000  0.14693022E+000  0.40864544E+001
  0.30058199E+000  0.27401668E+000  0.40864544E+001
  0.18129811E+000  0.36409569E+000  0.40864544E+001
  0.37528925E-001  0.40500155E+000  0.40864544E+001
 -0.11130875E+000  0.39120972E+000  0.40864544E+001
 -0.24511358E+000  0.32458282E+000  0.40864544E+001
 -0.34581444E+000  0.21411923E+000  0.40864544E+001
 -0.39981115E+000  0.74737661E-001  0.40864544E+001
 -0.39981115E+000 -0.74737638E-001  0.40864544E+001
 -0.34581444E+000 -0.21411921E+000  0.40864544E+001
 -0.24511361E+000 -0.32458279E+000  0.40864544E+001
 -0.11130872E+000 -0.39120972E+000  0.40864544E+001
  0.37528850E-001 -0.40500155E+000  0.40864544E+001
  0.18129812E+000 -0.36409569E+000  0.40864544E+001
  0.30058193E+000 -0.27401674E+000  0.40864544E+001
  0.37927058E+000 -0.14693022E+000  0.40864544E+001
  0.58778524E+000  0.00000000E+000  0.41909828E+001
  0.54809344E+000  0.21233252E+000  0.41909828E+001
  0.43437853E+000  0.39598835E+000  0.41909828E+001
  0.26199841E+000  0.52616376E+000  0.41909828E+001
  0.54233987E-001  0.58527786E+000  0.41909828E+001
 -0.16085504E+000  0.56534696E+000  0.41909828E+001
 -0.35421976E+000  0.46906275E+000  0.41909828E+001
 -0.49974510E+000  0.30942905E+000  0.41909828E+001
 -0.57777709E+000  0.10800526E+000  0.41909828E+001
 -0.57777709E+000 -0.10800523E+000  0.41909828E+001
 -0.49974510E+000 -0.30942902E+000  0.41909828E+001
 -0.35421979E+000 -0.46906272E+000  0.41909828E+001
 -0.16085501E+000 -0.56534696E+000  0.41909828E+001
  0.54233875E-001 -0.58527786E+000  0.41909828E+001
  0.26199844E+000 -0.52616376E+000  0.41909828E+001
  0.43437845E+000 -0.39598846E+000  0.41909828E+001
  0.54809344E+000 -0.21233255E+000  0.41909828E+001
  0.74314481E+000  0.00000000E+000  0.43308692E+001
  0.69296187E+000  0.26845488E+000  0.43308692E+001
  0.54919064E+000  0.50065339E+000  0.43308692E+001
  0.33124813E+000  0.66523594E+000  0.43308692E+001
  0.68568759E-001  0.73997468E+000  0.43308692E+001
 -0.20337120E+000  0.71477574E+000  0.43308692E+001
 -0.44784483E+000  0.59304231E+000  0.43308692E+001
 -0.63183445E+000  0.39121532E+000  0.43308692E+001
 -0.73049134E+000  0.13655251E+000  0.43308692E+001
 -0.73049134E+000 -0.13655247E+000  0.43308692E+001
 -0.63183445E+000 -0.39121529E+000  0.43308692E+001
 -0.44784486E+000 -0.59304231E+000  0.43308692E+001
 -0.20337117E+000 -0.71477574E+000  0.43308692E+001
  0.68568625E-001 -0.73997474E+000  0.43308692E+001
  0.33124816E+000 -0.66523594E+000  0.43308692E+001
  0.54919052E+000 -0.50065356E+000  0.43308692E+001
  0.69296187E+000 -0.26845488E+000  0.43308692E+001
  0.86602539E+000  0.00000000E+000  0.45000000E+001
  0.80754465E+000  0.31284446E+000  0.45000000E+001
  0.64000046E+000  0.58343750E+000  0.45000000E+001
  0.38602072E+000  0.77523416E+000  0.45000000E+001
  0.79906754E-001  0.86233103E+000  0.45000000E+001
 -0.23699906E+000  0.83296543E+000  0.45000000E+001
 -0.52189690E+000  0.69110316E+000  0.45000000E+001
 -0.73630965E+000  0.45590362E+000  0.45000000E+001
 -0.85127968E+000  0.15913175E+000  0.45000000E+001
 -0.85127968E+000 -0.15913171E+000  0.45000000E+001
 -0.73630965E+000 -0.45590356E+000  0.45000000E+001
 -0.52189696E+000 -0.69110310E+000  0.45000000E+001
 -0.23699902E+000 -0.83296543E+000  0.45000000E+001
  0.79906590E-001 -0.86233109E+000  0.45000000E+001
  0.38602075E+000 -0.77523416E+000  0.45000000E+001
  0.64000034E+000 -0.58343768E+000  0.45000000E+001
  0.80754465E+000 -0.31284449E+000  0.45000000E+001
  0.95105654E+000  0.00000000E+000  0.46909828E+001
  0.88683379E+000  0.34356126E+000  0.46909828E+001
  0.70283926E+000  0.64072263E+000  0.46909828E+001
  0.42392236E+000  0.85135090E+000  0.46909828E+001
  0.87752439E-001  0.94699949E+000  0.46909828E+001
 -0.26026896E+000  0.91475058E+000  0.46909828E+001
 -0.57313967E+000  0.75895947E+000  0.46909828E+001
 -0.80860460E+000  0.50066674E+000  0.46909828E+001
 -0.93486297E+000  0.17475618E+000  0.46909828E+001
 -0.93486297E+000 -0.17475614E+000  0.46909828E+001
 -0.80860460E+000 -0.50066668E+000  0.46909828E+001
 -0.57313973E+000 -0.75895941E+000  0.46909828E+001
 -0.26026890E+000 -0.91475058E+000  0.46909828E+001
  0.87752260E-001 -0.94699955E+000  0.46909828E+001
  0.42392239E+000 -0.85135090E+000  0.46909828E+001
  0.70283914E+000 -0.64072281E+000  0.46909828E+001
  0.88683379E+000 -0.34356129E+000  0.46909828E+001
  0.99452192E+000  0.00000000E+000  0.48954716E+001
  0.92736405E+000  0.35926276E+000  0.48954716E+001
  0.73496056E+000  0.67000508E+000  0.48954716E+001
  0.44329655E+000  0.89025950E+000  0.48954716E+001
  0.91762915E-001  0.99027944E+000  0.48954716E+001
 -0.27216381E+000  0.95655668E+000  0.48954716E+001
 -0.59933341E+000  0.79364562E+000  0.48954716E+001
 -0.84555960E+000  0.52354831E+000  0.48954716E+001
 -0.97758830E+000  0.18274294E+000  0.48954716E+001
 -0.97758830E+000 -0.18274288E+000  0.48954716E+001
 -0.84555960E+000 -0.52354825E+000  0.48954716E+001
 -0.59933347E+000 -0.79364556E+000  0.48954716E+001
 -0.27216375E+000 -0.95655668E+000  0.48954716E+001
  0.91762729E-001 -0.99027950E+000  0.48954716E+001
  0.44329658E+000 -0.89025950E+000  0.48954716E+001
  0.73496044E+000 -0.67000526E+000  0.48954716E+001
  0.92736405E+000 -0.35926279E+000  0.48954716E+001
  0.99452192E+000  0.00000000E+000  0.51045284E+001
  0.92736405E+000  0.35926276E+000  0.51045284E+001
  0.73496056E+000  0.67000508E+000  0.51045284E+001
  0.44329655E+000  0.89025950E+000  0.51045284E+001
  0.91762915E-001  0.99027944E+000  0.51045284E+001
 -0.27216381E+000  0.95655668E+000  0.51045284E+001
 -0.59933341E+000  0.79364562E+000  0.51045284E+001
 -0.84555960E+000  0.52354831E+000  0.51045284E+001
 -0.97758830E+000  0.18274294E+000  0.51045284E+001
 -0.97758830E+000 -0.18274288E+000  0.51045284E+001
 -0.84555960E+000 -0.52354825E+000  0.51045284E+001
 -0.59933347E+000 -0.79364556E+000  0.51045284E+001
 -0.27216375E+000 -0.95655668E+000  0.51045284E+001
  0.91762729E-001 -0.99027950E+000  0.51045284E+001
  0.44329658E+000 -0.89025950E+000  0.51045284E+001
  0.73496044E+000 -0.67000526E+000  0.51045284E+001
  0.92736405E+000 -0.35926279E+000  0.51045284E+001
  0.95105654E+000  0.00000000E+000  0.53090172E+001
  0.88683379E+000  0.34356126E+000  0.53090172E+001
  0.70283926E+000  0.64072263E+000  0.53090172E+001
  0.42392236E+000  0.85135090E+000  0.53090172E+001
  0.87752439E-001  0.94699949E+000  0.53090172E+001
 -0.26026896E+000  0.91475058E+000  0.53090172E+001
 -0.57313967E+000  0.75895947E+000  0.53090172E+001
 -0.80860460E+000  0.50066674E+000  0.53090172E+001
 -0.93486297E+000  0.17475618E+000  0.53090172E+001
 -0.93486297E+000 -0.17475614E+000  0.53090172E+001
 -0.80860460E+000 -0.50066668E+000  0.53090172E+001
 -0.57313973E+000 -0.75895941E+000  0.53090172E+001
 -0.26026890E+000 -0.91475058E+000  0.53090172E+001
  0.87752260E-001 -0.94699955E+000  0.53090172E+001
  0.42392239E+000 -0.85135090E+000  0.53090172E+001
  0.70283914E+000 -0.64072281E+000  0.53090172E+001
  0.88683379E+000 -0.34356129E+000  0.53090172E+001
  0.86602539E+000  0.00000000E+000  0.55000000E+001
  0.80754465E+000  0.31284446E+000  0.55000000E+001
  0.64000046E+000  0.58343750E+000  0.55000000E+001
  0.38602072E+000  0.77523416E+000  0.55000000E+001
  0.79906754E-001  0.86233103E+000  0.55000000E+001
 -0.23699906E+000  0.83296543E+000  0.55000000E+001
 -0.52189690E+000  0.69110316E+000  0.55000000E+001
 -0.73630965E+000  0.45590362E+000  0.55000000E+001
 -0.85127968E+000  0.15913175E+000  0.55000000E+001
 -0.85127968E+000 -0.15913171E+000  0.55000000E+001
 -0.73630965E+000 -0.45590356E+000  0.55000000E+001
 -0.52189696E+000 -0.69110310E+000  0.55000000E+001
 -0.23699902E+000 -0.83296543E+000  0.55000000E+001
  0.79906590E-001 -0.86233109E+000  0.55000000E+001
  0.38602075E+000 -0.77523416E+000  0.55000000E+001
  0.64000034E+000 -0.58343768E+000  0.55000000E+001
  0.80754465E+000 -0.31284449E+000  0.55000000E+001
  0.74314481E+000  0.00000000E+000  0.56691308E+001
  0.69296187E+000  0.26845488E+000  0.56691308E+001
  0.54919064E+000  0.50065339E+000  0.56691308E+001
[...]
CELL_DATA 255
SCALARS Intensities double
LOOKUP_TABLE default
 -0.11342123E+000
 -0.98103143E-001
 -0.69535397E-001
 -0.31577002E-001
  0.10646554E-001
  0.51431734E-001
  0.85271090E-001
  0.10759420E+000
  0.11538582E+000
  0.10759404E+000
  0.85271344E-001
  0.51432189E-001
  0.10646403E-001
 -0.31577047E-001
 -0.69535643E-001
 -0.98103143E-001
 -0.11342137E+000
 -0.47533959E+000
 -0.41114211E+000
 -0.29141811E+000
 -0.13233596E+000
  0.44618484E-001
  0.21554692E+000
  0.35736504E+000
  0.45091885E+000
  0.48357317E+000
  0.45091835E+000
  0.35736480E+000
  0.21554749E+000
  0.44618554E-001
 -0.13233626E+000
 -0.29141787E+000
 -0.41114220E+000
 -0.47533935E+000
 -0.79276299E+000
 -0.68569624E+000
 -0.48602232E+000
 -0.22070810E+000
  0.74413709E-001
  0.35948589E+000
  0.59600741E+000
  0.75203431E+000
  0.80649537E+000
  0.75203449E+000
  0.59600782E+000
  0.35948604E+000
  0.74414000E-001
 -0.22070743E+000
 -0.48602223E+000
 -0.68569565E+000
 -0.79276335E+000
 -0.10728787E+001
 -0.92797965E+000
 -0.65775281E+000
 -0.29869303E+000
  0.10070732E+000
  0.48650700E+000
  0.80659992E+000
  0.10177590E+001
  0.10914625E+001
  0.10177588E+001
  0.80660117E+000
  0.48650679E+000
  0.10070750E+000
 -0.29869312E+000
 -0.65775299E+000
 -0.92798066E+000
 -0.10728788E+001
 -0.13041549E+001
 -0.11280220E+001
 -0.79954308E+000
 -0.36308104E+000
  0.12241617E+000
  0.59138107E+000
  0.98047638E+000
  0.12371532E+001
  0.13267457E+001
  0.12371527E+001
  0.98047715E+000
  0.59138155E+000
  0.12241729E+000
 -0.36308116E+000
 -0.79954302E+000
 -0.11280209E+001
 -0.13041559E+001
 -0.14764754E+001
 -0.12770693E+001
 -0.90518761E+000
 -0.41105548E+000
  0.13859127E+000
  0.66952163E+000
  0.11100289E+001
  0.14006207E+001
  0.15020509E+001
  0.14006217E+001
  0.11100290E+001
  0.66952193E+000
  0.13859226E+000
 -0.41105554E+000
 -0.90518814E+000
 -0.12770689E+001
 -0.14764754E+001
 -0.15826577E+001
 -0.13689117E+001
 -0.97028470E+000
 -0.44061714E+000
  0.14855824E+000
  0.71767050E+000
  0.11898575E+001
  0.15013471E+001
  0.16100723E+001
  0.15013477E+001
  0.11898583E+001
  0.71767092E+000
  0.14855909E+000
 -0.44061732E+000
 -0.97028494E+000
 -0.13689114E+001
 -0.15826578E+001
 -0.16185073E+001
 -0.13999174E+001
 -0.99226338E+000
 -0.45059747E+000
  0.15192355E+000
  0.73392630E+000
  0.12168097E+001
  0.15353554E+001
  0.16465423E+001
  0.15353552E+001
  0.12168105E+001
  0.73392689E+000
  0.15192443E+000
 -0.45059747E+000
 -0.99226326E+000
 -0.13999184E+001
 -0.16185075E+001
 -0.15826575E+001
 -0.13689121E+001
 -0.97028494E+000
 -0.44061735E+000
  0.14855836E+000
  0.71767068E+000
  0.11898578E+001
  0.15013475E+001
  0.16100729E+001
  0.15013479E+001
  0.11898575E+001
  0.71767092E+000
  0.14855930E+000
 -0.44061676E+000
 -0.97028500E+000
 -0.13689113E+001
 -0.15826579E+001
 -0.14764755E+001
 -0.12770691E+001
 -0.90518850E+000
 -0.41105554E+000
  0.13859138E+000
  0.66952133E+000
  0.11100292E+001
  0.14006205E+001
  0.15020499E+001
  0.14006211E+001
  0.11100295E+001
  0.66952223E+000
  0.13859227E+000
 -0.41105536E+000
 -0.90518814E+000
 -0.12770690E+001
 -0.14764751E+001
 -0.13041549E+001
 -0.11280217E+001
 -0.79954261E+000
 -0.36308113E+000
  0.12241633E+000
  0.59138143E+000
  0.98047614E+000
  0.12371534E+001
  0.13267456E+001
  0.12371535E+001
  0.98047709E+000
  0.59138173E+000
  0.12241696E+000
 -0.36308095E+000
 -0.79954261E+000
 -0.11280217E+001
 -0.13041545E+001
 -0.10728781E+001
 -0.92798114E+000
 -0.65775323E+000
 -0.29869333E+000
  0.10070746E+000
  0.48650637E+000
  0.80660069E+000
  0.10177585E+001
  0.10914621E+001
  0.10177584E+001
  0.80660093E+000
  0.48650694E+000
  0.10070784E+000
 -0.29869252E+000
 -0.65775299E+000
 -0.92798007E+000
 -0.10728790E+001
 -0.79276323E+000
 -0.68569630E+000
 -0.48602229E+000
 -0.22070821E+000
  0.74413881E-001
  0.35948575E+000
  0.59600711E+000
  0.75203443E+000
  0.80649519E+000
  0.75203443E+000
  0.59600759E+000
  0.35948634E+000
  0.74413665E-001
 -0.22070767E+000
 -0.48602229E+000
 -0.68569636E+000
 -0.79276341E+000
 -0.47533953E+000
 -0.41114244E+000
 -0.29141787E+000
 -0.13233633E+000
  0.44618592E-001
  0.21554706E+000
  0.35736477E+000
  0.45091847E+000
  0.48357323E+000
  0.45091876E+000
  0.35736516E+000
  0.21554700E+000
  0.44618715E-001
 -0.13233589E+000
 -0.29141775E+000
 -0.41114223E+000
 -0.47533959E+000
 -0.11342141E+000
 -0.98102860E-001
 -0.69535308E-001
 -0.31576958E-001
  0.10646664E-001
  0.51431734E-001
  0.85271038E-001
  0.10759385E+000
  0.11538612E+000
  0.10759421E+000
  0.85271128E-001
  0.51431846E-001
  0.10646462E-001
 -0.31576995E-001
 -0.69535568E-001
 -0.98103322E-001
 -0.11342134E+000
SCALARS Cp double
LOOKUP_TABLE default
 -0.12602589E+001
 -0.12636688E+001
 -0.12687089E+001
 -0.12727481E+001
 -0.12736782E+001
 -0.12710136E+001
 -0.12661452E+001
 -0.12616142E+001
 -0.12597858E+001
 -0.12616142E+001
 -0.12661452E+001
 -0.12710136E+001
 -0.12736782E+001
 -0.12727481E+001
 -0.12687089E+001
 -0.12636688E+001
 -0.12602589E+001
 -0.10656704E+001
 -0.11248948E+001
 -0.12124295E+001
 -0.12825830E+001
 -0.12987364E+001
 -0.12524579E+001
 -0.11679040E+001
 -0.10892105E+001
 -0.10574538E+001
 -0.10892105E+001
 -0.11679040E+001
 -0.12524579E+001
 -0.12987364E+001
 -0.12825830E+001
 -0.12124295E+001
 -0.11248948E+001
 -0.10656704E+001
 -0.72720809E+000
 -0.86671675E+000
 -0.10729130E+001
 -0.12381662E+001
 -0.12762170E+001
 -0.11672036E+001
 -0.96802905E+000
 -0.78265894E+000
 -0.70785315E+000
 -0.78265894E+000
 -0.96802905E+000
 -0.11672036E+001
 -0.12762170E+001
 -0.12381662E+001
 -0.10729130E+001
 -0.86671675E+000
 -0.72720809E+000
 -0.29208224E+000
 -0.53552751E+000
 -0.89534396E+000
 -0.11837138E+001
 -0.12501132E+001
 -0.10598827E+001
 -0.71231939E+000
 -0.38884503E+000
 -0.25830748E+000
 -0.38884503E+000
 -0.71231939E+000
 -0.10598827E+001
 -0.12501132E+001
 -0.11837138E+001
 -0.89534396E+000
 -0.53552751E+000
 -0.29208224E+000
  0.16416740E+000
 -0.18935987E+000
 -0.71187949E+000
 -0.11306455E+001
 -0.12270696E+001
 -0.95082002E+000
 -0.44609418E+000
  0.23650044E-001
  0.21321455E+000
  0.23650044E-001
 -0.44609418E+000
 -0.95082002E+000
 -0.12270696E+001
 -0.11306455E+001
 -0.71187949E+000
 -0.18935987E+000
  0.16416740E+000
  0.56124484E+000
  0.11130031E+000
 -0.55372573E+000
 -0.10867015E+001
 -0.12094233E+001
 -0.85783235E+000
 -0.21545297E+000
  0.38240428E+000
  0.62366859E+000
  0.38240428E+000
 -0.21545297E+000
 -0.85783235E+000
 -0.12094233E+001
 -0.10867015E+001
 -0.55372573E+000
  0.11130031E+000
  0.56124484E+000
  0.83024643E+000
  0.31474718E+000
 -0.44716991E+000
 -0.10577977E+001
 -0.11983994E+001
 -0.79558339E+000
 -0.59612466E-001
  0.62534968E+000
  0.90176501E+000
  0.62534968E+000
 -0.59612466E-001
 -0.79558339E+000
 -0.11983994E+001
 -0.10577977E+001
 -0.44716991E+000
  0.31474718E+000
  0.83024643E+000
  0.92526367E+000
  0.38657117E+000
 -0.40962596E+000
 -0.10477270E+001
 -0.11946546E+001
 -0.77371518E+000
 -0.46315958E-002
  0.71114823E+000
  0.10000000E+001
  0.71114823E+000
 -0.46315958E-002
 -0.77371518E+000
 -0.11946546E+001
 -0.10477270E+001
 -0.40962596E+000
  0.38657117E+000
  0.92526367E+000
  0.83024643E+000
  0.31474718E+000
 -0.44716991E+000
 -0.10577977E+001
 -0.11983994E+001
 -0.79558339E+000
 -0.59612466E-001
  0.62534968E+000
  0.90176501E+000
  0.62534968E+000
 -0.59612466E-001
 -0.79558339E+000
 -0.11983994E+001
 -0.10577977E+001
 -0.44716991E+000
  0.31474718E+000
  0.83024643E+000
  0.56124484E+000
  0.11130031E+000
 -0.55372573E+000
 -0.10867015E+001
 -0.12094233E+001
 -0.85783235E+000
 -0.21545297E+000
  0.38240428E+000
  0.62366859E+000
  0.38240428E+000
 -0.21545297E+000
 -0.85783235E+000
 -0.12094233E+001
 -0.10867015E+001
 -0.55372573E+000
  0.11130031E+000
  0.56124484E+000
  0.16416740E+000
 -0.18935987E+000
 -0.71187949E+000
 -0.11306455E+001
 -0.12270696E+001
 -0.95082002E+000
 -0.44609418E+000
  0.23650044E-001
  0.21321455E+000
  0.23650044E-001
 -0.44609418E+000
 -0.95082002E+000
 -0.12270696E+001
 -0.11306455E+001
 -0.71187949E+000
 -0.18935987E+000
  0.16416740E+000
 -0.29208224E+000
 -0.53552751E+000
 -0.89534396E+000
 -0.11837138E+001
 -0.12501132E+001
 -0.10598827E+001
 -0.71231939E+000
 -0.38884503E+000
 -0.25830748E+000
 -0.38884503E+000
 -0.71231939E+000
 -0.10598827E+001
 -0.12501132E+001
 -0.11837138E+001
 -0.89534396E+000
 -0.53552751E+000
 -0.29208224E+000
 -0.72720809E+000
 -0.86671675E+000
 -0.10729130E+001
 -0.12381662E+001
 -0.12762170E+001
 -0.11672036E+001
 -0.96802905E+000
 -0.78265894E+000
 -0.70785315E+000
 -0.78265894E+000
 -0.96802905E+000
 -0.11672036E+001
 -0.12762170E+001
 -0.12381662E+001
 -0.10729130E+001
 -0.86671675E+000
 -0.72720809E+000
 -0.10656704E+001
 -0.11248948E+001
 -0.12124295E+001
 -0.12825830E+001
 -0.12987364E+001
 -0.12524579E+001
 -0.11679040E+001
 -0.10892105E+001
 -0.10574538E+001
 -0.10892105E+001
 -0.11679040E+001
 -0.12524579E+001
 -0.12987364E+001
 -0.12825830E+001
 -0.12124295E+001
 -0.11248948E+001
 -0.10656704E+001
 -0.12602589E+001
 -0.12636688E+001
 -0.12687089E+001
 -0.12727481E+001
 -0.12736782E+001
 -0.12710136E+001
 -0.12661452E+001
 -0.12616142E+001
 -0.12597858E+001
 -0.12616142E+001
 -0.12661452E+001
 -0.12710136E+001
 -0.12736782E+001
 -0.12727481E+001
 -0.12687089E+001
 -0.12636688E+001
 -0.12602589E+001
