
Linearized model: Predictions were generated on 11-Mar-2024 at 16:43:21 using OpenFAST, compiled as a 64-bit application using double precision at commit -128-NOTFOUND
 linked with  NWTC Subroutine Library; ElastoDyn; BeamDyn; InflowWind; AeroDyn; ServoDyn

Description from the FAST input file: NREL 5.0 MW Baseline Wind Turbine (Onshore), Linearization with AD15 + BD

Simulation information:
   Simulation time:                     1.0005 s
   Rotor Speed:                         1.2814 rad/s
   Azimuth:                             1.2721 rad
   Wind Speed:                          8.0000 m/s
   Number of continuous states:       228
   Number of discrete states:           0
   Number of constraint states:         0
   Number of inputs:                   57
   Number of outputs:                   0
   Jacobians included in this file?    No

Order of continuous states:
   Row/Column Operating Point                                                   Rotating Frame? Derivative Order Description
   ---------- ---------------                                                   --------------- ---------------- -----------
          1   -7.919891237362E+000                                                     T               2         vind (axial) at blade 1, node 1, m/s
          2    0.000000000000E+000                                                     T               2         vind (tangential) at blade 1, node 1, m/s
          3    0.000000000000E+000                                                     T               2         vind (axial) at blade 1, node 2, m/s
          4    0.000000000000E+000                                                     T               2         vind (tangential) at blade 1, node 2, m/s
          5    0.000000000000E+000                                                     T               2         vind (axial) at blade 1, node 3, m/s
          6    0.000000000000E+000                                                     T               2         vind (tangential) at blade 1, node 3, m/s
          7    0.000000000000E+000                                                     T               2         vind (axial) at blade 1, node 4, m/s
          8    0.000000000000E+000                                                     T               2         vind (tangential) at blade 1, node 4, m/s
          9   -2.218723959559E+000                                                     T               2         vind (axial) at blade 1, node 5, m/s
         10    8.019997146749E-001                                                     T               2         vind (tangential) at blade 1, node 5, m/s
         11   -2.072836538982E+000                                                     T               2         vind (axial) at blade 1, node 6, m/s
         12    5.834887600763E-001                                                     T               2         vind (tangential) at blade 1, node 6, m/s
         13   -1.838258392300E+000                                                     T               2         vind (axial) at blade 1, node 7, m/s
         14    4.315516806157E-001                                                     T               2         vind (tangential) at blade 1, node 7, m/s
         15   -1.863271837877E+000                                                     T               2         vind (axial) at blade 1, node 8, m/s
         16    3.616803400544E-001                                                     T               2         vind (tangential) at blade 1, node 8, m/s
         17   -2.256902150148E+000                                                     T               2         vind (axial) at blade 1, node 9, m/s
         18    3.481201722309E-001                                                     T               2         vind (tangential) at blade 1, node 9, m/s
         19   -2.407197778521E+000                                                     T               2         vind (axial) at blade 1, node 10, m/s
         20    3.131106413425E-001                                                     T               2         vind (tangential) at blade 1, node 10, m/s
         21   -2.948941084482E+000                                                     T               2         vind (axial) at blade 1, node 11, m/s
         22    3.020330747649E-001                                                     T               2         vind (tangential) at blade 1, node 11, m/s
         23   -3.343980357734E+000                                                     T               2         vind (axial) at blade 1, node 12, m/s
         24    2.794539202521E-001                                                     T               2         vind (tangential) at blade 1, node 12, m/s
         25   -3.279567446339E+000                                                     T               2         vind (axial) at blade 1, node 13, m/s
         26    2.464436057856E-001                                                     T               2         vind (tangential) at blade 1, node 13, m/s
         27   -3.507727471498E+000                                                     T               2         vind (axial) at blade 1, node 14, m/s
         28    2.263373855362E-001                                                     T               2         vind (tangential) at blade 1, node 14, m/s
         29   -3.731238249706E+000                                                     T               2         vind (axial) at blade 1, node 15, m/s
         30    2.088715905485E-001                                                     T               2         vind (tangential) at blade 1, node 15, m/s
         31   -3.929628681672E+000                                                     T               2         vind (axial) at blade 1, node 16, m/s
         32    1.966067698719E-001                                                     T               2         vind (tangential) at blade 1, node 16, m/s
         33   -4.057869462185E+000                                                     T               2         vind (axial) at blade 1, node 17, m/s
         34    1.869297784715E-001                                                     T               2         vind (tangential) at blade 1, node 17, m/s
         35   -3.797392289360E+000                                                     T               2         vind (axial) at blade 1, node 18, m/s
         36    1.726281082206E-001                                                     T               2         vind (tangential) at blade 1, node 18, m/s
         37   -6.477120928078E+000                                                     T               2         vind (axial) at blade 1, node 19, m/s
         38    0.000000000000E+000                                                     T               2         vind (tangential) at blade 1, node 19, m/s
         39   -7.718005764755E+000                                                     T               2         vind (axial) at blade 2, node 1, m/s
         40    0.000000000000E+000                                                     T               2         vind (tangential) at blade 2, node 1, m/s
         41    0.000000000000E+000                                                     T               2         vind (axial) at blade 2, node 2, m/s
         42    0.000000000000E+000                                                     T               2         vind (tangential) at blade 2, node 2, m/s
         43    0.000000000000E+000                                                     T               2         vind (axial) at blade 2, node 3, m/s
         44    0.000000000000E+000                                                     T               2         vind (tangential) at blade 2, node 3, m/s
         45    0.000000000000E+000                                                     T               2         vind (axial) at blade 2, node 4, m/s
         46    0.000000000000E+000                                                     T               2         vind (tangential) at blade 2, node 4, m/s
         47   -2.194891526397E+000                                                     T               2         vind (axial) at blade 2, node 5, m/s
         48    7.694260328402E-001                                                     T               2         vind (tangential) at blade 2, node 5, m/s
         49   -2.048927468382E+000                                                     T               2         vind (axial) at blade 2, node 6, m/s
         50    5.661665164674E-001                                                     T               2         vind (tangential) at blade 2, node 6, m/s
         51   -1.822494876398E+000                                                     T               2         vind (axial) at blade 2, node 7, m/s
         52    4.221005413437E-001                                                     T               2         vind (tangential) at blade 2, node 7, m/s
         53   -1.858034982386E+000                                                     T               2         vind (axial) at blade 2, node 8, m/s
         54    3.567832838198E-001                                                     T               2         vind (tangential) at blade 2, node 8, m/s
         55   -2.266203421920E+000                                                     T               2         vind (axial) at blade 2, node 9, m/s
         56    3.462466262500E-001                                                     T               2         vind (tangential) at blade 2, node 9, m/s
         57   -2.425445352898E+000                                                     T               2         vind (axial) at blade 2, node 10, m/s
         58    3.130461076235E-001                                                     T               2         vind (tangential) at blade 2, node 10, m/s
         59   -2.982366381197E+000                                                     T               2         vind (axial) at blade 2, node 11, m/s
         60    3.031957189766E-001                                                     T               2         vind (tangential) at blade 2, node 11, m/s
         61   -3.387472765307E+000                                                     T               2         vind (axial) at blade 2, node 12, m/s
         62    2.817114331842E-001                                                     T               2         vind (tangential) at blade 2, node 12, m/s
         63   -3.329400598552E+000                                                     T               2         vind (axial) at blade 2, node 13, m/s
         64    2.494696493948E-001                                                     T               2         vind (tangential) at blade 2, node 13, m/s
         65   -3.564810754647E+000                                                     T               2         vind (axial) at blade 2, node 14, m/s
         66    2.301926267809E-001                                                     T               2         vind (tangential) at blade 2, node 14, m/s
         67   -3.794103136892E+000                                                     T               2         vind (axial) at blade 2, node 15, m/s
         68    2.135325937188E-001                                                     T               2         vind (tangential) at blade 2, node 15, m/s
         69   -3.996243225781E+000                                                     T               2         vind (axial) at blade 2, node 16, m/s
         70    2.020303395548E-001                                                     T               2         vind (tangential) at blade 2, node 16, m/s
         71   -4.160069129194E+000                                                     T               2         vind (axial) at blade 2, node 17, m/s
         72    1.923515749275E-001                                                     T               2         vind (tangential) at blade 2, node 17, m/s
         73   -3.912675397205E+000                                                     T               2         vind (axial) at blade 2, node 18, m/s
         74    1.797593458837E-001                                                     T               2         vind (tangential) at blade 2, node 18, m/s
         75   -6.570013543113E+000                                                     T               2         vind (axial) at blade 2, node 19, m/s
         76    0.000000000000E+000                                                     T               2         vind (tangential) at blade 2, node 19, m/s
         77   -7.851493355599E+000                                                     T               2         vind (axial) at blade 3, node 1, m/s
         78    0.000000000000E+000                                                     T               2         vind (tangential) at blade 3, node 1, m/s
         79    0.000000000000E+000                                                     T               2         vind (axial) at blade 3, node 2, m/s
         80    0.000000000000E+000                                                     T               2         vind (tangential) at blade 3, node 2, m/s
         81    0.000000000000E+000                                                     T               2         vind (axial) at blade 3, node 3, m/s
         82    0.000000000000E+000                                                     T               2         vind (tangential) at blade 3, node 3, m/s
         83    0.000000000000E+000                                                     T               2         vind (axial) at blade 3, node 4, m/s
         84    0.000000000000E+000                                                     T               2         vind (tangential) at blade 3, node 4, m/s
         85   -2.239353179640E+000                                                     T               2         vind (axial) at blade 3, node 5, m/s
         86    8.532970160767E-001                                                     T               2         vind (tangential) at blade 3, node 5, m/s
         87   -2.115831764958E+000                                                     T               2         vind (axial) at blade 3, node 6, m/s
         88    6.162039781230E-001                                                     T               2         vind (tangential) at blade 3, node 6, m/s
         89   -1.878325201945E+000                                                     T               2         vind (axial) at blade 3, node 7, m/s
         90    4.521634755515E-001                                                     T               2         vind (tangential) at blade 3, node 7, m/s
         91   -1.895079512626E+000                                                     T               2         vind (axial) at blade 3, node 8, m/s
         92    3.752764534179E-001                                                     T               2         vind (tangential) at blade 3, node 8, m/s
         93   -2.276373295628E+000                                                     T               2         vind (axial) at blade 3, node 9, m/s
         94    3.572561631597E-001                                                     T               2         vind (tangential) at blade 3, node 9, m/s
         95   -2.429734992724E+000                                                     T               2         vind (axial) at blade 3, node 10, m/s
         96    3.202479421717E-001                                                     T               2         vind (tangential) at blade 3, node 10, m/s
         97   -2.975505066348E+000                                                     T               2         vind (axial) at blade 3, node 11, m/s
         98    3.075483434115E-001                                                     T               2         vind (tangential) at blade 3, node 11, m/s
         99   -3.382680026537E+000                                                     T               2         vind (axial) at blade 3, node 12, m/s
        100    2.844919077358E-001                                                     T               2         vind (tangential) at blade 3, node 12, m/s
        101   -3.335418256713E+000                                                     T               2         vind (axial) at blade 3, node 13, m/s
        102    2.511535087419E-001                                                     T               2         vind (tangential) at blade 3, node 13, m/s
        103   -3.582572508836E+000                                                     T               2         vind (axial) at blade 3, node 14, m/s
        104    2.313586639456E-001                                                     T               2         vind (tangential) at blade 3, node 14, m/s
        105   -3.823564334359E+000                                                     T               2         vind (axial) at blade 3, node 15, m/s
        106    2.144557843793E-001                                                     T               2         vind (tangential) at blade 3, node 15, m/s
        107   -4.033681357565E+000                                                     T               2         vind (axial) at blade 3, node 16, m/s
        108    2.028561256625E-001                                                     T               2         vind (tangential) at blade 3, node 16, m/s
        109   -4.209827093339E+000                                                     T               2         vind (axial) at blade 3, node 17, m/s
        110    1.926899871458E-001                                                     T               2         vind (tangential) at blade 3, node 17, m/s
        111   -3.948868019764E+000                                                     T               2         vind (axial) at blade 3, node 18, m/s
        112    1.797020509294E-001                                                     T               2         vind (tangential) at blade 3, node 18, m/s
        113   -6.510464691953E+000                                                     T               2         vind (axial) at blade 3, node 19, m/s
        114    0.000000000000E+000                                                     T               2         vind (tangential) at blade 3, node 19, m/s
        115   -3.176929053932E+000                                                     T               2         First time derivative of vind (axial) at blade 1, node 1, m/s/s
        116    0.000000000000E+000                                                     T               2         First time derivative of vind (tangential) at blade 1, node 1, m/s/s
        117    0.000000000000E+000                                                     T               2         First time derivative of vind (axial) at blade 1, node 2, m/s/s
        118    0.000000000000E+000                                                     T               2         First time derivative of vind (tangential) at blade 1, node 2, m/s/s
        119    0.000000000000E+000                                                     T               2         First time derivative of vind (axial) at blade 1, node 3, m/s/s
        120    0.000000000000E+000                                                     T               2         First time derivative of vind (tangential) at blade 1, node 3, m/s/s
        121    0.000000000000E+000                                                     T               2         First time derivative of vind (axial) at blade 1, node 4, m/s/s
        122    0.000000000000E+000                                                     T               2         First time derivative of vind (tangential) at blade 1, node 4, m/s/s
        123   -8.917485082041E-001                                                     T               2         First time derivative of vind (axial) at blade 1, node 5, m/s/s
        124    3.239871368378E-001                                                     T               2         First time derivative of vind (tangential) at blade 1, node 5, m/s/s
        125   -8.352502767283E-001                                                     T               2         First time derivative of vind (axial) at blade 1, node 6, m/s/s
        126    2.362445485463E-001                                                     T               2         First time derivative of vind (tangential) at blade 1, node 6, m/s/s
        127   -7.428111043826E-001                                                     T               2         First time derivative of vind (axial) at blade 1, node 7, m/s/s
        128    1.752787970635E-001                                                     T               2         First time derivative of vind (tangential) at blade 1, node 7, m/s/s
        129   -7.545986504473E-001                                                     T               2         First time derivative of vind (axial) at blade 1, node 8, m/s/s
        130    1.473674494041E-001                                                     T               2         First time derivative of vind (tangential) at blade 1, node 8, m/s/s
        131   -9.140885203793E-001                                                     T               2         First time derivative of vind (axial) at blade 1, node 9, m/s/s
        132    1.421586948092E-001                                                     T               2         First time derivative of vind (tangential) at blade 1, node 9, m/s/s
        133   -9.783701099949E-001                                                     T               2         First time derivative of vind (axial) at blade 1, node 10, m/s/s
        134    1.285994747429E-001                                                     T               2         First time derivative of vind (tangential) at blade 1, node 10, m/s/s
        135   -1.199418653793E+000                                                     T               2         First time derivative of vind (axial) at blade 1, node 11, m/s/s
        136    1.247893545106E-001                                                     T               2         First time derivative of vind (tangential) at blade 1, node 11, m/s/s
        137   -1.364997097241E+000                                                     T               2         First time derivative of vind (axial) at blade 1, node 12, m/s/s
        138    1.166468610009E-001                                                     T               2         First time derivative of vind (tangential) at blade 1, node 12, m/s/s
        139   -1.344918933506E+000                                                     T               2         First time derivative of vind (axial) at blade 1, node 13, m/s/s
        140    1.043220364650E-001                                                     T               2         First time derivative of vind (tangential) at blade 1, node 13, m/s/s
        141   -1.447398306336E+000                                                     T               2         First time derivative of vind (axial) at blade 1, node 14, m/s/s
        142    9.759654512755E-002                                                     T               2         First time derivative of vind (tangential) at blade 1, node 14, m/s/s
        143   -1.549879452445E+000                                                     T               2         First time derivative of vind (axial) at blade 1, node 15, m/s/s
        144    9.217989424176E-002                                                     T               2         First time derivative of vind (tangential) at blade 1, node 15, m/s/s
        145   -1.643156934080E+000                                                     T               2         First time derivative of vind (axial) at blade 1, node 16, m/s/s
        146    8.884692211562E-002                                                     T               2         First time derivative of vind (tangential) at blade 1, node 16, m/s/s
        147   -1.709510791394E+000                                                     T               2         First time derivative of vind (axial) at blade 1, node 17, m/s/s
        148    8.665297806498E-002                                                     T               2         First time derivative of vind (tangential) at blade 1, node 17, m/s/s
        149   -1.637979786491E+000                                                     T               2         First time derivative of vind (axial) at blade 1, node 18, m/s/s
        150    8.316663886353E-002                                                     T               2         First time derivative of vind (tangential) at blade 1, node 18, m/s/s
        151   -2.921682388120E+000                                                     T               2         First time derivative of vind (axial) at blade 1, node 19, m/s/s
        152    0.000000000000E+000                                                     T               2         First time derivative of vind (tangential) at blade 1, node 19, m/s/s
        153   -3.109496522361E+000                                                     T               2         First time derivative of vind (axial) at blade 2, node 1, m/s/s
        154    0.000000000000E+000                                                     T               2         First time derivative of vind (tangential) at blade 2, node 1, m/s/s
        155    0.000000000000E+000                                                     T               2         First time derivative of vind (axial) at blade 2, node 2, m/s/s
        156    0.000000000000E+000                                                     T               2         First time derivative of vind (tangential) at blade 2, node 2, m/s/s
        157    0.000000000000E+000                                                     T               2         First time derivative of vind (axial) at blade 2, node 3, m/s/s
        158    0.000000000000E+000                                                     T               2         First time derivative of vind (tangential) at blade 2, node 3, m/s/s
        159    0.000000000000E+000                                                     T               2         First time derivative of vind (axial) at blade 2, node 4, m/s/s
        160    0.000000000000E+000                                                     T               2         First time derivative of vind (tangential) at blade 2, node 4, m/s/s
        161   -8.862111930347E-001                                                     T               2         First time derivative of vind (axial) at blade 2, node 5, m/s/s
        162    3.119853428672E-001                                                     T               2         First time derivative of vind (tangential) at blade 2, node 5, m/s/s
        163   -8.276404799946E-001                                                     T               2         First time derivative of vind (axial) at blade 2, node 6, m/s/s
        164    2.295931877800E-001                                                     T               2         First time derivative of vind (tangential) at blade 2, node 6, m/s/s
        165   -7.368829727188E-001                                                     T               2         First time derivative of vind (axial) at blade 2, node 7, m/s/s
        166    1.713338504016E-001                                                     T               2         First time derivative of vind (tangential) at blade 2, node 7, m/s/s
        167   -7.516983782339E-001                                                     T               2         First time derivative of vind (axial) at blade 2, node 8, m/s/s
        168    1.449814145336E-001                                                     T               2         First time derivative of vind (tangential) at blade 2, node 8, m/s/s
        169   -9.163909791267E-001                                                     T               2         First time derivative of vind (axial) at blade 2, node 9, m/s/s
        170    1.408304584390E-001                                                     T               2         First time derivative of vind (tangential) at blade 2, node 9, m/s/s
        171   -9.830330937746E-001                                                     T               2         First time derivative of vind (axial) at blade 2, node 10, m/s/s
        172    1.278218134646E-001                                                     T               2         First time derivative of vind (tangential) at blade 2, node 10, m/s/s
        173   -1.209490668242E+000                                                     T               2         First time derivative of vind (axial) at blade 2, node 11, m/s/s
        174    1.243677458134E-001                                                     T               2         First time derivative of vind (tangential) at blade 2, node 11, m/s/s
        175   -1.377867987478E+000                                                     T               2         First time derivative of vind (axial) at blade 2, node 12, m/s/s
        176    1.164949708150E-001                                                     T               2         First time derivative of vind (tangential) at blade 2, node 12, m/s/s
        177   -1.359404007633E+000                                                     T               2         First time derivative of vind (axial) at blade 2, node 13, m/s/s