
Linearized model: Predictions were generated on 04-Mar-2024 at 11:09:25 using OpenFAST, compiled on Mar  4 2024 at 10:16:10 as a 64-bit application using double precision at commit v3.5.2-982-g1e454dbe
 linked with  NWTC Subroutine Library; ElastoDyn; BeamDyn; InflowWind; AeroDyn; ServoDyn

Description from the FAST input file: NREL 5.0 MW Baseline Wind Turbine (Onshore), Linearization with AD15 + BD

Simulation information:
   Simulation time:                     1.0005 s
   Rotor Speed:                         1.2814 rad/s
   Azimuth:                             1.2721 rad
   Wind Speed:                          8.0000 m/s
   Number of continuous states:       228
   Number of discrete states:           0
   Number of constraint states:         0
   Number of inputs:                   60
   Number of outputs:                   0
   Jacobians included in this file?    No

Order of continuous states:
   Row/Column Operating Point                                                   Rotating Frame? Derivative Order Description
   ---------- ---------------                                                   --------------- ---------------- -----------
          1   -7.919891237988E+000                                                     T               2         vind (axial) at blade 1, node 1, m/s
          2    0.000000000000E+000                                                     T               2         vind (tangential) at blade 1, node 1, m/s
          3    0.000000000000E+000                                                     T               2         vind (axial) at blade 1, node 2, m/s
          4    0.000000000000E+000                                                     T               2         vind (tangential) at blade 1, node 2, m/s
          5    0.000000000000E+000                                                     T               2         vind (axial) at blade 1, node 3, m/s
          6    0.000000000000E+000                                                     T               2         vind (tangential) at blade 1, node 3, m/s
          7    0.000000000000E+000                                                     T               2         vind (axial) at blade 1, node 4, m/s
          8    0.000000000000E+000                                                     T               2         vind (tangential) at blade 1, node 4, m/s
          9   -2.218723958982E+000                                                     T               2         vind (axial) at blade 1, node 5, m/s
         10    8.019997144678E-001                                                     T               2         vind (tangential) at blade 1, node 5, m/s
         11   -2.072836538447E+000                                                     T               2         vind (axial) at blade 1, node 6, m/s
         12    5.834887599304E-001                                                     T               2         vind (tangential) at blade 1, node 6, m/s
         13   -1.838258393352E+000                                                     T               2         vind (axial) at blade 1, node 7, m/s
         14    4.315516807761E-001                                                     T               2         vind (tangential) at blade 1, node 7, m/s
         15   -1.863271842056E+000                                                     T               2         vind (axial) at blade 1, node 8, m/s
         16    3.616803406344E-001                                                     T               2         vind (tangential) at blade 1, node 8, m/s
         17   -2.256902158906E+000                                                     T               2         vind (axial) at blade 1, node 9, m/s
         18    3.481201731048E-001                                                     T               2         vind (tangential) at blade 1, node 9, m/s
         19   -2.407197791281E+000                                                     T               2         vind (axial) at blade 1, node 10, m/s
         20    3.131106423916E-001                                                     T               2         vind (tangential) at blade 1, node 10, m/s
         21   -2.948941099926E+000                                                     T               2         vind (axial) at blade 1, node 11, m/s
         22    3.020330756017E-001                                                     T               2         vind (tangential) at blade 1, node 11, m/s
         23   -3.343980367133E+000                                                     T               2         vind (axial) at blade 1, node 12, m/s
         24    2.794539208940E-001                                                     T               2         vind (tangential) at blade 1, node 12, m/s
         25   -3.279567440890E+000                                                     T               2         vind (axial) at blade 1, node 13, m/s
         26    2.464436060513E-001                                                     T               2         vind (tangential) at blade 1, node 13, m/s
         27   -3.507727446711E+000                                                     T               2         vind (axial) at blade 1, node 14, m/s
         28    2.263373853113E-001                                                     T               2         vind (tangential) at blade 1, node 14, m/s
         29   -3.731238211036E+000                                                     T               2         vind (axial) at blade 1, node 15, m/s
         30    2.088715899573E-001                                                     T               2         vind (tangential) at blade 1, node 15, m/s
         31   -3.929628649710E+000                                                     T               2         vind (axial) at blade 1, node 16, m/s
         32    1.966067695047E-001                                                     T               2         vind (tangential) at blade 1, node 16, m/s
         33   -4.057869462859E+000                                                     T               2         vind (axial) at blade 1, node 17, m/s
         34    1.869297791169E-001                                                     T               2         vind (tangential) at blade 1, node 17, m/s
         35   -3.797392347020E+000                                                     T               2         vind (axial) at blade 1, node 18, m/s
         36    1.726281107802E-001                                                     T               2         vind (tangential) at blade 1, node 18, m/s
         37   -6.477120946058E+000                                                     T               2         vind (axial) at blade 1, node 19, m/s
         38    0.000000000000E+000                                                     T               2         vind (tangential) at blade 1, node 19, m/s
         39   -7.718005765231E+000                                                     T               2         vind (axial) at blade 2, node 1, m/s
         40    0.000000000000E+000                                                     T               2         vind (tangential) at blade 2, node 1, m/s
         41    0.000000000000E+000                                                     T               2         vind (axial) at blade 2, node 2, m/s
         42    0.000000000000E+000                                                     T               2         vind (tangential) at blade 2, node 2, m/s
         43    0.000000000000E+000                                                     T               2         vind (axial) at blade 2, node 3, m/s
         44    0.000000000000E+000                                                     T               2         vind (tangential) at blade 2, node 3, m/s
         45    0.000000000000E+000                                                     T               2         vind (axial) at blade 2, node 4, m/s
         46    0.000000000000E+000                                                     T               2         vind (tangential) at blade 2, node 4, m/s
         47   -2.194891525454E+000                                                     T               2         vind (axial) at blade 2, node 5, m/s
         48    7.694260325509E-001                                                     T               2         vind (tangential) at blade 2, node 5, m/s
         49   -2.048927467394E+000                                                     T               2         vind (axial) at blade 2, node 6, m/s
         50    5.661665161493E-001                                                     T               2         vind (tangential) at blade 2, node 6, m/s
         51   -1.822494877157E+000                                                     T               2         vind (axial) at blade 2, node 7, m/s
         52    4.221005412518E-001                                                     T               2         vind (tangential) at blade 2, node 7, m/s
         53   -1.858034986847E+000                                                     T               2         vind (axial) at blade 2, node 8, m/s
         54    3.567832840861E-001                                                     T               2         vind (tangential) at blade 2, node 8, m/s
         55   -2.266203432211E+000                                                     T               2         vind (axial) at blade 2, node 9, m/s
         56    3.462466266497E-001                                                     T               2         vind (tangential) at blade 2, node 9, m/s
         57   -2.425445367651E+000                                                     T               2         vind (axial) at blade 2, node 10, m/s
         58    3.130461079763E-001                                                     T               2         vind (tangential) at blade 2, node 10, m/s
         59   -2.982366399151E+000                                                     T               2         vind (axial) at blade 2, node 11, m/s
         60    3.031957186705E-001                                                     T               2         vind (tangential) at blade 2, node 11, m/s
         61   -3.387472772417E+000                                                     T               2         vind (axial) at blade 2, node 12, m/s
         62    2.817114323509E-001                                                     T               2         vind (tangential) at blade 2, node 12, m/s
         63   -3.329400584105E+000                                                     T               2         vind (axial) at blade 2, node 13, m/s
         64    2.494696478602E-001                                                     T               2         vind (tangential) at blade 2, node 13, m/s
         65   -3.564810711145E+000                                                     T               2         vind (axial) at blade 2, node 14, m/s
         66    2.301926243797E-001                                                     T               2         vind (tangential) at blade 2, node 14, m/s
         67   -3.794103073886E+000                                                     T               2         vind (axial) at blade 2, node 15, m/s
         68    2.135325907182E-001                                                     T               2         vind (tangential) at blade 2, node 15, m/s
         69   -3.996243174589E+000                                                     T               2         vind (axial) at blade 2, node 16, m/s
         70    2.020303368742E-001                                                     T               2         vind (tangential) at blade 2, node 16, m/s
         71   -4.160069124033E+000                                                     T               2         vind (axial) at blade 2, node 17, m/s
         72    1.923515736667E-001                                                     T               2         vind (tangential) at blade 2, node 17, m/s
         73   -3.912675465532E+000                                                     T               2         vind (axial) at blade 2, node 18, m/s
         74    1.797593472862E-001                                                     T               2         vind (tangential) at blade 2, node 18, m/s
         75   -6.570013505451E+000                                                     T               2         vind (axial) at blade 2, node 19, m/s
         76    0.000000000000E+000                                                     T               2         vind (tangential) at blade 2, node 19, m/s
         77   -7.851493356224E+000                                                     T               2         vind (axial) at blade 3, node 1, m/s
         78    0.000000000000E+000                                                     T               2         vind (tangential) at blade 3, node 1, m/s
         79    0.000000000000E+000                                                     T               2         vind (axial) at blade 3, node 2, m/s
         80    0.000000000000E+000                                                     T               2         vind (tangential) at blade 3, node 2, m/s
         81    0.000000000000E+000                                                     T               2         vind (axial) at blade 3, node 3, m/s
         82    0.000000000000E+000                                                     T               2         vind (tangential) at blade 3, node 3, m/s
         83    0.000000000000E+000                                                     T               2         vind (axial) at blade 3, node 4, m/s
         84    0.000000000000E+000                                                     T               2         vind (tangential) at blade 3, node 4, m/s
         85   -2.239353179072E+000                                                     T               2         vind (axial) at blade 3, node 5, m/s
         86    8.532970158307E-001                                                     T               2         vind (tangential) at blade 3, node 5, m/s
         87   -2.115831764577E+000                                                     T               2         vind (axial) at blade 3, node 6, m/s
         88    6.162039779211E-001                                                     T               2         vind (tangential) at blade 3, node 6, m/s
         89   -1.878325203816E+000                                                     T               2         vind (axial) at blade 3, node 7, m/s
         90    4.521634757316E-001                                                     T               2         vind (tangential) at blade 3, node 7, m/s
         91   -1.895079518807E+000                                                     T               2         vind (axial) at blade 3, node 8, m/s
         92    3.752764540956E-001                                                     T               2         vind (tangential) at blade 3, node 8, m/s
         93   -2.276373308163E+000                                                     T               2         vind (axial) at blade 3, node 9, m/s
         94    3.572561640978E-001                                                     T               2         vind (tangential) at blade 3, node 9, m/s
         95   -2.429735010167E+000                                                     T               2         vind (axial) at blade 3, node 10, m/s
         96    3.202479431649E-001                                                     T               2         vind (tangential) at blade 3, node 10, m/s
         97   -2.975505086577E+000                                                     T               2         vind (axial) at blade 3, node 11, m/s
         98    3.075483438505E-001                                                     T               2         vind (tangential) at blade 3, node 11, m/s
         99   -3.382680034685E+000                                                     T               2         vind (axial) at blade 3, node 12, m/s
        100    2.844919077703E-001                                                     T               2         vind (tangential) at blade 3, node 12, m/s
        101   -3.335418242438E+000                                                     T               2         vind (axial) at blade 3, node 13, m/s
        102    2.511535080243E-001                                                     T               2         vind (tangential) at blade 3, node 13, m/s
        103   -3.582572466275E+000                                                     T               2         vind (axial) at blade 3, node 14, m/s
        104    2.313586622643E-001                                                     T               2         vind (tangential) at blade 3, node 14, m/s
        105   -3.823564273322E+000                                                     T               2         vind (axial) at blade 3, node 15, m/s
        106    2.144557819547E-001                                                     T               2         vind (tangential) at blade 3, node 15, m/s
        107   -4.033681308497E+000                                                     T               2         vind (axial) at blade 3, node 16, m/s
        108    2.028561234186E-001                                                     T               2         vind (tangential) at blade 3, node 16, m/s
        109   -4.209827090140E+000                                                     T               2         vind (axial) at blade 3, node 17, m/s
        110    1.926899861751E-001                                                     T               2         vind (tangential) at blade 3, node 17, m/s
        111   -3.948868086118E+000                                                     T               2         vind (axial) at blade 3, node 18, m/s
        112    1.797020522109E-001                                                     T               2         vind (tangential) at blade 3, node 18, m/s
        113   -6.510464647647E+000                                                     T               2         vind (axial) at blade 3, node 19, m/s
        114    0.000000000000E+000                                                     T               2         vind (tangential) at blade 3, node 19, m/s
        115   -3.176929054109E+000                                                     T               2         First time derivative of vind (axial) at blade 1, node 1, m/s/s
        116    0.000000000000E+000                                                     T               2         First time derivative of vind (tangential) at blade 1, node 1, m/s/s
        117    0.000000000000E+000                                                     T               2         First time derivative of vind (axial) at blade 1, node 2, m/s/s
        118    0.000000000000E+000                                                     T               2         First time derivative of vind (tangential) at blade 1, node 2, m/s/s
        119    0.000000000000E+000                                                     T               2         First time derivative of vind (axial) at blade 1, node 3, m/s/s
        120    0.000000000000E+000                                                     T               2         First time derivative of vind (tangential) at blade 1, node 3, m/s/s
        121    0.000000000000E+000                                                     T               2         First time derivative of vind (axial) at blade 1, node 4, m/s/s
        122    0.000000000000E+000                                                     T               2         First time derivative of vind (tangential) at blade 1, node 4, m/s/s
        123   -8.917485080274E-001                                                     T               2         First time derivative of vind (axial) at blade 1, node 5, m/s/s
        124    3.239871367721E-001                                                     T               2         First time derivative of vind (tangential) at blade 1, node 5, m/s/s
        125   -8.352502765338E-001                                                     T               2         First time derivative of vind (axial) at blade 1, node 6, m/s/s
        126    2.362445484932E-001                                                     T               2         First time derivative of vind (tangential) at blade 1, node 6, m/s/s
        127   -7.428111045826E-001                                                     T               2         First time derivative of vind (axial) at blade 1, node 7, m/s/s
        128    1.752787970891E-001                                                     T               2         First time derivative of vind (tangential) at blade 1, node 7, m/s/s
        129   -7.545986514289E-001                                                     T               2         First time derivative of vind (axial) at blade 1, node 8, m/s/s
        130    1.473674495367E-001                                                     T               2         First time derivative of vind (tangential) at blade 1, node 8, m/s/s
        131   -9.140885224886E-001                                                     T               2         First time derivative of vind (axial) at blade 1, node 9, m/s/s
        132    1.421586950155E-001                                                     T               2         First time derivative of vind (tangential) at blade 1, node 9, m/s/s
        133   -9.783701130868E-001                                                     T               2         First time derivative of vind (axial) at blade 1, node 10, m/s/s
        134    1.285994749917E-001                                                     T               2         First time derivative of vind (tangential) at blade 1, node 10, m/s/s
        135   -1.199418657659E+000                                                     T               2         First time derivative of vind (axial) at blade 1, node 11, m/s/s
        136    1.247893547087E-001                                                     T               2         First time derivative of vind (tangential) at blade 1, node 11, m/s/s
        137   -1.364997100089E+000                                                     T               2         First time derivative of vind (axial) at blade 1, node 12, m/s/s
        138    1.166468611617E-001                                                     T               2         First time derivative of vind (tangential) at blade 1, node 12, m/s/s
        139   -1.344918933868E+000                                                     T               2         First time derivative of vind (axial) at blade 1, node 13, m/s/s
        140    1.043220365570E-001                                                     T               2         First time derivative of vind (tangential) at blade 1, node 13, m/s/s
        141   -1.447398303851E+000                                                     T               2         First time derivative of vind (axial) at blade 1, node 14, m/s/s
        142    9.759654514492E-002                                                     T               2         First time derivative of vind (tangential) at blade 1, node 14, m/s/s
        143   -1.549879448580E+000                                                     T               2         First time derivative of vind (axial) at blade 1, node 15, m/s/s
        144    9.217989421640E-002                                                     T               2         First time derivative of vind (tangential) at blade 1, node 15, m/s/s
        145   -1.643156932016E+000                                                     T               2         First time derivative of vind (axial) at blade 1, node 16, m/s/s
        146    8.884692213602E-002                                                     T               2         First time derivative of vind (tangential) at blade 1, node 16, m/s/s
        147   -1.709510794222E+000                                                     T               2         First time derivative of vind (axial) at blade 1, node 17, m/s/s
        148    8.665297822148E-002                                                     T               2         First time derivative of vind (tangential) at blade 1, node 17, m/s/s
        149   -1.637979796079E+000                                                     T               2         First time derivative of vind (axial) at blade 1, node 18, m/s/s
        150    8.316663923417E-002                                                     T               2         First time derivative of vind (tangential) at blade 1, node 18, m/s/s
        151   -2.921682388345E+000                                                     T               2         First time derivative of vind (axial) at blade 1, node 19, m/s/s
        152    0.000000000000E+000                                                     T               2         First time derivative of vind (tangential) at blade 1, node 19, m/s/s
        153   -3.109496522494E+000                                                     T               2         First time derivative of vind (axial) at blade 2, node 1, m/s/s
        154    0.000000000000E+000                                                     T               2         First time derivative of vind (tangential) at blade 2, node 1, m/s/s
        155    0.000000000000E+000                                                     T               2         First time derivative of vind (axial) at blade 2, node 2, m/s/s
        156    0.000000000000E+000                                                     T               2         First time derivative of vind (tangential) at blade 2, node 2, m/s/s
        157    0.000000000000E+000                                                     T               2         First time derivative of vind (axial) at blade 2, node 3, m/s/s
        158    0.000000000000E+000                                                     T               2         First time derivative of vind (tangential) at blade 2, node 3, m/s/s
        159    0.000000000000E+000                                                     T               2         First time derivative of vind (axial) at blade 2, node 4, m/s/s
        160    0.000000000000E+000                                                     T               2         First time derivative of vind (tangential) at blade 2, node 4, m/s/s
        161   -8.862111927632E-001                                                     T               2         First time derivative of vind (axial) at blade 2, node 5, m/s/s
        162    3.119853427817E-001                                                     T               2         First time derivative of vind (tangential) at blade 2, node 5, m/s/s
        163   -8.276404796944E-001                                                     T               2         First time derivative of vind (axial) at blade 2, node 6, m/s/s
        164    2.295931876848E-001                                                     T               2         First time derivative of vind (tangential) at blade 2, node 6, m/s/s
        165   -7.368829728622E-001                                                     T               2         First time derivative of vind (axial) at blade 2, node 7, m/s/s
        166    1.713338503643E-001                                                     T               2         First time derivative of vind (tangential) at blade 2, node 7, m/s/s
        167   -7.516983793084E-001                                                     T               2         First time derivative of vind (axial) at blade 2, node 8, m/s/s
        168    1.449814145873E-001                                                     T               2         First time derivative of vind (tangential) at blade 2, node 8, m/s/s
        169   -9.163909816353E-001                                                     T               2         First time derivative of vind (axial) at blade 2, node 9, m/s/s
        170    1.408304585254E-001                                                     T               2         First time derivative of vind (tangential) at blade 2, node 9, m/s/s
        171   -9.830330973460E-001                                                     T               2         First time derivative of vind (axial) at blade 2, node 10, m/s/s
        172    1.278218135405E-001                                                     T               2         First time derivative of vind (tangential) at blade 2, node 10, m/s/s
        173   -1.209490672666E+000                                                     T               2         First time derivative of vind (axial) at blade 2, node 11, m/s/s
        174    1.243677457381E-001                                                     T               2         First time derivative of vind (tangential) at blade 2, node 11, m/s/s
        175   -1.377867989750E+000                                                     T               2         First time derivative of vind (axial) at blade 2, node 12, m/s/s
        176    1.164949706398E-001                                                     T               2         First time derivative of vind (tangential) at blade 2, node 12, m/s/s
        177   -1.359404006005E+000                                                     T               2         First time derivative of vind (axial) at blade 2, node 13, m/s/s