
Linearized model: Predictions were generated on 21-Mar-2025 at 19:01:13 using OpenFAST, compiled on Mar 21 2025 at 18:50:58 as a 64-bit application using double precision at commit -128-NOTFOUND
 linked with  NWTC Subroutine Library; ElastoDyn; BeamDyn; InflowWind; AeroDyn; ServoDyn

Description from the FAST input file: NREL 5.0 MW Baseline Wind Turbine (Onshore), Linearization with AeroDyn + BD

Simulation information:
   Simulation time:                     1.0005 s
   Rotor Speed:                         1.2815 rad/s
   Azimuth:                             1.2721 rad
   Wind Speed:                          8.0000 m/s
   Number of continuous states:       228
   Number of discrete states:           0
   Number of constraint states:         0
   Number of inputs:                   60
   Number of outputs:                   0
   Jacobians included in this file?    No

Order of continuous states:
   Row/Column Operating Point                                                   Rotating Frame? Derivative Order Description
   ---------- ---------------                                                   --------------- ---------------- -----------
          1   -7.920206502896E+000                                                     T               2         vind (axial) at blade 1, node 1, m/s
          2    0.000000000000E+000                                                     T               2         vind (tangential) at blade 1, node 1, m/s
          3    0.000000000000E+000                                                     T               2         vind (axial) at blade 1, node 2, m/s
          4    0.000000000000E+000                                                     T               2         vind (tangential) at blade 1, node 2, m/s
          5    0.000000000000E+000                                                     T               2         vind (axial) at blade 1, node 3, m/s
          6    0.000000000000E+000                                                     T               2         vind (tangential) at blade 1, node 3, m/s
          7    0.000000000000E+000                                                     T               2         vind (axial) at blade 1, node 4, m/s
          8    0.000000000000E+000                                                     T               2         vind (tangential) at blade 1, node 4, m/s
          9   -2.218724438448E+000                                                     T               2         vind (axial) at blade 1, node 5, m/s
         10    8.021290003841E-001                                                     T               2         vind (tangential) at blade 1, node 5, m/s
         11   -2.072856764354E+000                                                     T               2         vind (axial) at blade 1, node 6, m/s
         12    5.836045955773E-001                                                     T               2         vind (tangential) at blade 1, node 6, m/s
         13   -1.838281858026E+000                                                     T               2         vind (axial) at blade 1, node 7, m/s
         14    4.316444524519E-001                                                     T               2         vind (tangential) at blade 1, node 7, m/s
         15   -1.863254626183E+000                                                     T               2         vind (axial) at blade 1, node 8, m/s
         16    3.617586164328E-001                                                     T               2         vind (tangential) at blade 1, node 8, m/s
         17   -2.256758794656E+000                                                     T               2         vind (axial) at blade 1, node 9, m/s
         18    3.481942144970E-001                                                     T               2         vind (tangential) at blade 1, node 9, m/s
         19   -2.406985089520E+000                                                     T               2         vind (axial) at blade 1, node 10, m/s
         20    3.131804143504E-001                                                     T               2         vind (tangential) at blade 1, node 10, m/s
         21   -2.948484230564E+000                                                     T               2         vind (axial) at blade 1, node 11, m/s
         22    3.021088993402E-001                                                     T               2         vind (tangential) at blade 1, node 11, m/s
         23   -3.343348449905E+000                                                     T               2         vind (axial) at blade 1, node 12, m/s
         24    2.795281368667E-001                                                     T               2         vind (tangential) at blade 1, node 12, m/s
         25   -3.278855058646E+000                                                     T               2         vind (axial) at blade 1, node 13, m/s
         26    2.465045819098E-001                                                     T               2         vind (tangential) at blade 1, node 13, m/s
         27   -3.507027857707E+000                                                     T               2         vind (axial) at blade 1, node 14, m/s
         28    2.263880942927E-001                                                     T               2         vind (tangential) at blade 1, node 14, m/s
         29   -3.730631478957E+000                                                     T               2         vind (axial) at blade 1, node 15, m/s
         30    2.089100905863E-001                                                     T               2         vind (tangential) at blade 1, node 15, m/s
         31   -3.929197692344E+000                                                     T               2         vind (axial) at blade 1, node 16, m/s
         32    1.966324765183E-001                                                     T               2         vind (tangential) at blade 1, node 16, m/s
         33   -4.056995049668E+000                                                     T               2         vind (axial) at blade 1, node 17, m/s
         34    1.869568118989E-001                                                     T               2         vind (tangential) at blade 1, node 17, m/s
         35   -3.797321179028E+000                                                     T               2         vind (axial) at blade 1, node 18, m/s
         36    1.726157088091E-001                                                     T               2         vind (tangential) at blade 1, node 18, m/s
         37   -6.477975106840E+000                                                     T               2         vind (axial) at blade 1, node 19, m/s
         38    0.000000000000E+000                                                     T               2         vind (tangential) at blade 1, node 19, m/s
         39   -7.718199206303E+000                                                     T               2         vind (axial) at blade 2, node 1, m/s
         40    0.000000000000E+000                                                     T               2         vind (tangential) at blade 2, node 1, m/s
         41    0.000000000000E+000                                                     T               2         vind (axial) at blade 2, node 2, m/s
         42    0.000000000000E+000                                                     T               2         vind (tangential) at blade 2, node 2, m/s
         43    0.000000000000E+000                                                     T               2         vind (axial) at blade 2, node 3, m/s
         44    0.000000000000E+000                                                     T               2         vind (tangential) at blade 2, node 3, m/s
         45    0.000000000000E+000                                                     T               2         vind (axial) at blade 2, node 4, m/s
         46    0.000000000000E+000                                                     T               2         vind (tangential) at blade 2, node 4, m/s
         47   -2.194856631541E+000                                                     T               2         vind (axial) at blade 2, node 5, m/s
         48    7.695266030285E-001                                                     T               2         vind (tangential) at blade 2, node 5, m/s
         49   -2.048900567805E+000                                                     T               2         vind (axial) at blade 2, node 6, m/s
         50    5.662574929761E-001                                                     T               2         vind (tangential) at blade 2, node 6, m/s
         51   -1.822462629416E+000                                                     T               2         vind (axial) at blade 2, node 7, m/s
         52    4.221721882761E-001                                                     T               2         vind (tangential) at blade 2, node 7, m/s
         53   -1.857956141211E+000                                                     T               2         vind (axial) at blade 2, node 8, m/s
         54    3.568424841612E-001                                                     T               2         vind (tangential) at blade 2, node 8, m/s
         55   -2.266001490119E+000                                                     T               2         vind (axial) at blade 2, node 9, m/s
         56    3.463015867501E-001                                                     T               2         vind (tangential) at blade 2, node 9, m/s
         57   -2.425180997791E+000                                                     T               2         vind (axial) at blade 2, node 10, m/s
         58    3.130960208034E-001                                                     T               2         vind (tangential) at blade 2, node 10, m/s
         59   -2.981887522254E+000                                                     T               2         vind (axial) at blade 2, node 11, m/s
         60    3.032479650367E-001                                                     T               2         vind (tangential) at blade 2, node 11, m/s
         61   -3.386885429774E+000                                                     T               2         vind (axial) at blade 2, node 12, m/s
         62    2.817579087363E-001                                                     T               2         vind (tangential) at blade 2, node 12, m/s
         63   -3.328818135588E+000                                                     T               2         vind (axial) at blade 2, node 13, m/s
         64    2.495022621470E-001                                                     T               2         vind (tangential) at blade 2, node 13, m/s
         65   -3.564313314509E+000                                                     T               2         vind (axial) at blade 2, node 14, m/s
         66    2.302129741844E-001                                                     T               2         vind (tangential) at blade 2, node 14, m/s
         67   -3.793777125540E+000                                                     T               2         vind (axial) at blade 2, node 15, m/s
         68    2.135387297003E-001                                                     T               2         vind (tangential) at blade 2, node 15, m/s
         69   -3.996117941549E+000                                                     T               2         vind (axial) at blade 2, node 16, m/s
         70    2.020221690070E-001                                                     T               2         vind (tangential) at blade 2, node 16, m/s
         71   -4.160177763437E+000                                                     T               2         vind (axial) at blade 2, node 17, m/s
         72    1.923178678779E-001                                                     T               2         vind (tangential) at blade 2, node 17, m/s
         73   -3.910933266101E+000                                                     T               2         vind (axial) at blade 2, node 18, m/s
         74    1.797296973647E-001                                                     T               2         vind (tangential) at blade 2, node 18, m/s
         75   -6.569741065294E+000                                                     T               2         vind (axial) at blade 2, node 19, m/s
         76    0.000000000000E+000                                                     T               2         vind (tangential) at blade 2, node 19, m/s
         77   -7.851805903465E+000                                                     T               2         vind (axial) at blade 3, node 1, m/s
         78    0.000000000000E+000                                                     T               2         vind (tangential) at blade 3, node 1, m/s
         79    0.000000000000E+000                                                     T               2         vind (axial) at blade 3, node 2, m/s
         80    0.000000000000E+000                                                     T               2         vind (tangential) at blade 3, node 2, m/s
         81    0.000000000000E+000                                                     T               2         vind (axial) at blade 3, node 3, m/s
         82    0.000000000000E+000                                                     T               2         vind (tangential) at blade 3, node 3, m/s
         83    0.000000000000E+000                                                     T               2         vind (axial) at blade 3, node 4, m/s
         84    0.000000000000E+000                                                     T               2         vind (tangential) at blade 3, node 4, m/s
         85   -2.239328397353E+000                                                     T               2         vind (axial) at blade 3, node 5, m/s
         86    8.533969594258E-001                                                     T               2         vind (tangential) at blade 3, node 5, m/s
         87   -2.115834467821E+000                                                     T               2         vind (axial) at blade 3, node 6, m/s
         88    6.163005417563E-001                                                     T               2         vind (tangential) at blade 3, node 6, m/s
         89   -1.878321387669E+000                                                     T               2         vind (axial) at blade 3, node 7, m/s
         90    4.522379082798E-001                                                     T               2         vind (tangential) at blade 3, node 7, m/s
         91   -1.895036971262E+000                                                     T               2         vind (axial) at blade 3, node 8, m/s
         92    3.753382110780E-001                                                     T               2         vind (tangential) at blade 3, node 8, m/s
         93   -2.276211543296E+000                                                     T               2         vind (axial) at blade 3, node 9, m/s
         94    3.573123346694E-001                                                     T               2         vind (tangential) at blade 3, node 9, m/s
         95   -2.429488681508E+000                                                     T               2         vind (axial) at blade 3, node 10, m/s
         96    3.202975856826E-001                                                     T               2         vind (tangential) at blade 3, node 10, m/s
         97   -2.975011160087E+000                                                     T               2         vind (axial) at blade 3, node 11, m/s
         98    3.076022969660E-001                                                     T               2         vind (tangential) at blade 3, node 11, m/s
         99   -3.382087392099E+000                                                     T               2         vind (axial) at blade 3, node 12, m/s
        100    2.845360527286E-001                                                     T               2         vind (tangential) at blade 3, node 12, m/s
        101   -3.334785562681E+000                                                     T               2         vind (axial) at blade 3, node 13, m/s
        102    2.511834111957E-001                                                     T               2         vind (tangential) at blade 3, node 13, m/s
        103   -3.581994225174E+000                                                     T               2         vind (axial) at blade 3, node 14, m/s
        104    2.313754701430E-001                                                     T               2         vind (tangential) at blade 3, node 14, m/s
        105   -3.823133083138E+000                                                     T               2         vind (axial) at blade 3, node 15, m/s
        106    2.144579540513E-001                                                     T               2         vind (tangential) at blade 3, node 15, m/s
        107   -4.033460578607E+000                                                     T               2         vind (axial) at blade 3, node 16, m/s
        108    2.028444720281E-001                                                     T               2         vind (tangential) at blade 3, node 16, m/s
        109   -4.209018562353E+000                                                     T               2         vind (axial) at blade 3, node 17, m/s
        110    1.926814414261E-001                                                     T               2         vind (tangential) at blade 3, node 17, m/s
        111   -3.948131294162E+000                                                     T               2         vind (axial) at blade 3, node 18, m/s
        112    1.796610887184E-001                                                     T               2         vind (tangential) at blade 3, node 18, m/s
        113   -6.511077611824E+000                                                     T               2         vind (axial) at blade 3, node 19, m/s
        114    0.000000000000E+000                                                     T               2         vind (tangential) at blade 3, node 19, m/s
        115   -3.177018681796E+000                                                     T               2         First time derivative of vind (axial) at blade 1, node 1, m/s/s
        116    0.000000000000E+000                                                     T               2         First time derivative of vind (tangential) at blade 1, node 1, m/s/s
        117    0.000000000000E+000                                                     T               2         First time derivative of vind (axial) at blade 1, node 2, m/s/s
        118    0.000000000000E+000                                                     T               2         First time derivative of vind (tangential) at blade 1, node 2, m/s/s
        119    0.000000000000E+000                                                     T               2         First time derivative of vind (axial) at blade 1, node 3, m/s/s
        120    0.000000000000E+000                                                     T               2         First time derivative of vind (tangential) at blade 1, node 3, m/s/s
        121    0.000000000000E+000                                                     T               2         First time derivative of vind (axial) at blade 1, node 4, m/s/s
        122    0.000000000000E+000                                                     T               2         First time derivative of vind (tangential) at blade 1, node 4, m/s/s
        123   -8.917484273881E-001                                                     T               2         First time derivative of vind (axial) at blade 1, node 5, m/s/s
        124    3.240234504899E-001                                                     T               2         First time derivative of vind (tangential) at blade 1, node 5, m/s/s
        125   -8.352561210390E-001                                                     T               2         First time derivative of vind (axial) at blade 1, node 6, m/s/s
        126    2.362768224907E-001                                                     T               2         First time derivative of vind (tangential) at blade 1, node 6, m/s/s
        127   -7.428181631459E-001                                                     T               2         First time derivative of vind (axial) at blade 1, node 7, m/s/s
        128    1.753043050335E-001                                                     T               2         First time derivative of vind (tangential) at blade 1, node 7, m/s/s
        129   -7.545955554532E-001                                                     T               2         First time derivative of vind (axial) at blade 1, node 8, m/s/s
        130    1.473886940531E-001                                                     T               2         First time derivative of vind (tangential) at blade 1, node 8, m/s/s
        131   -9.140538566664E-001                                                     T               2         First time derivative of vind (axial) at blade 1, node 9, m/s/s
        132    1.421784850957E-001                                                     T               2         First time derivative of vind (tangential) at blade 1, node 9, m/s/s
        133   -9.783204634700E-001                                                     T               2         First time derivative of vind (axial) at blade 1, node 10, m/s/s
        134    1.286178648843E-001                                                     T               2         First time derivative of vind (tangential) at blade 1, node 10, m/s/s
        135   -1.199311672263E+000                                                     T               2         First time derivative of vind (axial) at blade 1, node 11, m/s/s
        136    1.248089876524E-001                                                     T               2         First time derivative of vind (tangential) at blade 1, node 11, m/s/s
        137   -1.364854204833E+000                                                     T               2         First time derivative of vind (axial) at blade 1, node 12, m/s/s
        138    1.166658500083E-001                                                     T               2         First time derivative of vind (tangential) at blade 1, node 12, m/s/s
        139   -1.344761897807E+000                                                     T               2         First time derivative of vind (axial) at blade 1, node 13, m/s/s
        140    1.043378051856E-001                                                     T               2         First time derivative of vind (tangential) at blade 1, node 13, m/s/s
        141   -1.447249880609E+000                                                     T               2         First time derivative of vind (axial) at blade 1, node 14, m/s/s
        142    9.761017162682E-002                                                     T               2         First time derivative of vind (tangential) at blade 1, node 14, m/s/s
        143   -1.549753998312E+000                                                     T               2         First time derivative of vind (axial) at blade 1, node 15, m/s/s
        144    9.219144652441E-002                                                     T               2         First time derivative of vind (tangential) at blade 1, node 15, m/s/s
        145   -1.643067242177E+000                                                     T               2         First time derivative of vind (axial) at blade 1, node 16, m/s/s
        146    8.885681952641E-002                                                     T               2         First time derivative of vind (tangential) at blade 1, node 16, m/s/s
        147   -1.709306864115E+000                                                     T               2         First time derivative of vind (axial) at blade 1, node 17, m/s/s
        148    8.666537198135E-002                                                     T               2         First time derivative of vind (tangential) at blade 1, node 17, m/s/s
        149   -1.638004791071E+000                                                     T               2         First time derivative of vind (axial) at blade 1, node 18, m/s/s
        150    8.317448479133E-002                                                     T               2         First time derivative of vind (tangential) at blade 1, node 18, m/s/s
        151   -2.922230304683E+000                                                     T               2         First time derivative of vind (axial) at blade 1, node 19, m/s/s
        152    0.000000000000E+000                                                     T               2         First time derivative of vind (tangential) at blade 1, node 19, m/s/s
        153   -3.109550289533E+000                                                     T               2         First time derivative of vind (axial) at blade 2, node 1, m/s/s
        154    0.000000000000E+000                                                     T               2         First time derivative of vind (tangential) at blade 2, node 1, m/s/s
        155    0.000000000000E+000                                                     T               2         First time derivative of vind (axial) at blade 2, node 2, m/s/s
        156    0.000000000000E+000                                                     T               2         First time derivative of vind (tangential) at blade 2, node 2, m/s/s
        157    0.000000000000E+000                                                     T               2         First time derivative of vind (axial) at blade 2, node 3, m/s/s
        158    0.000000000000E+000                                                     T               2         First time derivative of vind (tangential) at blade 2, node 3, m/s/s
        159    0.000000000000E+000                                                     T               2         First time derivative of vind (axial) at blade 2, node 4, m/s/s
        160    0.000000000000E+000                                                     T               2         First time derivative of vind (tangential) at blade 2, node 4, m/s/s
        161   -8.861999930377E-001                                                     T               2         First time derivative of vind (axial) at blade 2, node 5, m/s/s
        162    3.120122244375E-001                                                     T               2         First time derivative of vind (tangential) at blade 2, node 5, m/s/s
        163   -8.276319371297E-001                                                     T               2         First time derivative of vind (axial) at blade 2, node 6, m/s/s
        164    2.296176745416E-001                                                     T               2         First time derivative of vind (tangential) at blade 2, node 6, m/s/s
        165   -7.368738066103E-001                                                     T               2         First time derivative of vind (axial) at blade 2, node 7, m/s/s
        166    1.713530505531E-001                                                     T               2         First time derivative of vind (tangential) at blade 2, node 7, m/s/s
        167   -7.516782474485E-001                                                     T               2         First time derivative of vind (axial) at blade 2, node 8, m/s/s
        168    1.449972196590E-001                                                     T               2         First time derivative of vind (tangential) at blade 2, node 8, m/s/s
        169   -9.163412531466E-001                                                     T               2         First time derivative of vind (axial) at blade 2, node 9, m/s/s
        170    1.408450914181E-001                                                     T               2         First time derivative of vind (tangential) at blade 2, node 9, m/s/s
        171   -9.829714379660E-001                                                     T               2         First time derivative of vind (axial) at blade 2, node 10, m/s/s
        172    1.278351272965E-001                                                     T               2         First time derivative of vind (tangential) at blade 2, node 10, m/s/s
        173   -1.209380612953E+000                                                     T               2         First time derivative of vind (axial) at blade 2, node 11, m/s/s
        174    1.243817027396E-001                                                     T               2         First time derivative of vind (tangential) at blade 2, node 11, m/s/s
        175   -1.377738747844E+000                                                     T               2         First time derivative of vind (axial) at blade 2, node 12, m/s/s
        176    1.165077173154E-001                                                     T               2         First time derivative of vind (tangential) at blade 2, node 12, m/s/s
        177   -1.359280177101E+000                                                     T               2         First time derivative of vind (axial) at blade 2, node 13, m/s/s