
Linearized model: Predictions were generated on 22-Apr-2024 at 21:59:52 using OpenFAST, compiled on Apr 22 2024 at 21:47:03 as a 64-bit application using double precision at commit -128-NOTFOUND
 linked with  NWTC Subroutine Library; ElastoDyn; BeamDyn; InflowWind; AeroDyn; ServoDyn

Description from the FAST input file: NREL 5.0 MW Baseline Wind Turbine (Onshore), Linearization with AeroDyn + BD

Simulation information:
   Simulation time:                     1.0005 s
   Rotor Speed:                         1.2814 rad/s
   Azimuth:                             1.2721 rad
   Wind Speed:                          8.0000 m/s
   Number of continuous states:        60
   Number of discrete states:           0
   Number of constraint states:         0
   Number of inputs:                    0
   Number of outputs:                  12
   Jacobians included in this file?    No

Order of continuous states:
   Row/Column Operating Point                                                   Rotating Frame? Derivative Order Description
   ---------- ---------------                                                   --------------- ---------------- -----------
          1   -3.151553893848E-002                                                     T               2         finite element node 2 (number of elements = 1; element order = 5) translational displacement in X, m
          2   -8.363673349363E+000                                                     T               2         finite element node 2 (number of elements = 1; element order = 5) translational displacement in Y, m
          3   -6.166724416927E+000                                                     T               2         finite element node 2 (number of elements = 1; element order = 5) translational displacement in Z, m
          4    1.314824488599E+000                                                     T               2         finite element node 2 (number of elements = 1; element order = 5) rotational displacement in X, rad
          5    3.569137498562E-003                                                     T               2         finite element node 2 (number of elements = 1; element order = 5) rotational displacement in Y, rad
          6   -5.120590353276E-002                                                     T               2         finite element node 2 (number of elements = 1; element order = 5) rotational displacement in Z, rad
          7   -2.794474426004E-001                                                     T               2         finite element node 3 (number of elements = 1; element order = 5) translational displacement in X, m
          8   -2.245338510611E+001                                                     T               2         finite element node 3 (number of elements = 1; element order = 5) translational displacement in Y, m
          9   -1.654239357861E+001                                                     T               2         finite element node 3 (number of elements = 1; element order = 5) translational displacement in Z, m
         10    1.314169520124E+000                                                     T               2         finite element node 3 (number of elements = 1; element order = 5) rotational displacement in X, rad
         11    1.966577315736E-002                                                     T               2         finite element node 3 (number of elements = 1; element order = 5) rotational displacement in Y, rad
         12   -3.960272218697E-002                                                     T               2         finite element node 3 (number of elements = 1; element order = 5) rotational displacement in Z, rad
         13   -2.343311031897E-002                                                     T               2         finite element node 4 (number of elements = 1; element order = 5) translational displacement in X, m
         14   -3.921275011099E+001                                                     T               2         finite element node 4 (number of elements = 1; element order = 5) translational displacement in Y, m
         15   -2.890236846801E+001                                                     T               2         finite element node 4 (number of elements = 1; element order = 5) translational displacement in Z, m
         16    1.316752855844E+000                                                     T               2         finite element node 4 (number of elements = 1; element order = 5) rotational displacement in X, rad
         17    6.252204279327E-002                                                     T               2         finite element node 4 (number of elements = 1; element order = 5) rotational displacement in Y, rad
         18   -1.212657145013E-002                                                     T               2         finite element node 4 (number of elements = 1; element order = 5) rotational displacement in Z, rad
         19    9.659117913689E-001                                                     T               2         finite element node 5 (number of elements = 1; element order = 5) translational displacement in X, m
         20   -5.329787820463E+001                                                     T               2         finite element node 5 (number of elements = 1; element order = 5) translational displacement in Y, m
         21   -3.936547513706E+001                                                     T               2         finite element node 5 (number of elements = 1; element order = 5) translational displacement in Z, m
         22    1.318689382453E+000                                                     T               2         finite element node 5 (number of elements = 1; element order = 5) rotational displacement in X, rad
         23    1.156554937062E-001                                                     T               2         finite element node 5 (number of elements = 1; element order = 5) rotational displacement in Y, rad
         24    1.847592129402E-002                                                     T               2         finite element node 5 (number of elements = 1; element order = 5) rotational displacement in Z, rad
         25    1.748720597302E+000                                                     T               2         finite element node 6 (number of elements = 1; element order = 5) translational displacement in X, m
         26   -6.017259140539E+001                                                     T               2         finite element node 6 (number of elements = 1; element order = 5) translational displacement in Y, m
         27   -4.451305280038E+001                                                     T               2         finite element node 6 (number of elements = 1; element order = 5) translational displacement in Z, m
         28    1.318322456742E+000                                                     T               2         finite element node 6 (number of elements = 1; element order = 5) rotational displacement in X, rad
         29    1.368374441666E-001                                                     T               2         finite element node 6 (number of elements = 1; element order = 5) rotational displacement in Y, rad
         30    2.959945553751E-002                                                     T               2         finite element node 6 (number of elements = 1; element order = 5) rotational displacement in Z, rad
         31    8.418689342595E-003                                                     T               2         First time derivative of finite element node 2 (number of elements = 1; element order = 5) translational displacement in X, m/s
         32   -3.357879325135E+000                                                     T               2         First time derivative of finite element node 2 (number of elements = 1; element order = 5) translational displacement in Y, m/s
         33   -1.072996266660E+001                                                     T               2         First time derivative of finite element node 2 (number of elements = 1; element order = 5) translational displacement in Z, m/s
         34    1.281960875578E+000                                                     T               2         First time derivative of finite element node 2 (number of elements = 1; element order = 5) rotational displacement in X, rad/s
         35    6.947782056241E-004                                                     T               2         First time derivative of finite element node 2 (number of elements = 1; element order = 5) rotational displacement in Y, rad/s
         36   -4.750086331904E-002                                                     T               2         First time derivative of finite element node 2 (number of elements = 1; element order = 5) rotational displacement in Z, rad/s
         37   -6.820913976742E-001                                                     T               2         First time derivative of finite element node 3 (number of elements = 1; element order = 5) translational displacement in X, m/s
         38   -8.970608670622E+000                                                     T               2         First time derivative of finite element node 3 (number of elements = 1; element order = 5) translational displacement in Y, m/s
         39   -2.882970540004E+001                                                     T               2         First time derivative of finite element node 3 (number of elements = 1; element order = 5) translational displacement in Z, m/s
         40    1.286959234048E+000                                                     T               2         First time derivative of finite element node 3 (number of elements = 1; element order = 5) rotational displacement in X, rad/s
         41    9.203289424872E-003                                                     T               2         First time derivative of finite element node 3 (number of elements = 1; element order = 5) rotational displacement in Y, rad/s
         42   -5.391143120692E-002                                                     T               2         First time derivative of finite element node 3 (number of elements = 1; element order = 5) rotational displacement in Z, rad/s
         43   -1.582448124033E+000                                                     T               2         First time derivative of finite element node 4 (number of elements = 1; element order = 5) translational displacement in X, m/s
         44   -1.567466433304E+001                                                     T               2         First time derivative of finite element node 4 (number of elements = 1; element order = 5) translational displacement in Y, m/s
         45   -5.046789248285E+001                                                     T               2         First time derivative of finite element node 4 (number of elements = 1; element order = 5) translational displacement in Z, m/s
         46    1.293208591646E+000                                                     T               2         First time derivative of finite element node 4 (number of elements = 1; element order = 5) rotational displacement in X, rad/s
         47    5.154222521579E-002                                                     T               2         First time derivative of finite element node 4 (number of elements = 1; element order = 5) rotational displacement in Y, rad/s
         48   -7.033481567949E-002                                                     T               2         First time derivative of finite element node 4 (number of elements = 1; element order = 5) rotational displacement in Z, rad/s
         49   -2.305327339912E+000                                                     T               2         First time derivative of finite element node 5 (number of elements = 1; element order = 5) translational displacement in X, m/s
         50   -2.131268681239E+001                                                     T               2         First time derivative of finite element node 5 (number of elements = 1; element order = 5) translational displacement in Y, m/s
         51   -6.881144453261E+001                                                     T               2         First time derivative of finite element node 5 (number of elements = 1; element order = 5) translational displacement in Z, m/s
         52    1.297062720027E+000                                                     T               2         First time derivative of finite element node 5 (number of elements = 1; element order = 5) rotational displacement in X, rad/s
         53    1.096754401401E-001                                                     T               2         First time derivative of finite element node 5 (number of elements = 1; element order = 5) rotational displacement in Y, rad/s
         54   -7.794004158165E-002                                                     T               2         First time derivative of finite element node 5 (number of elements = 1; element order = 5) rotational displacement in Z, rad/s
         55   -2.564374522607E+000                                                     T               2         First time derivative of finite element node 6 (number of elements = 1; element order = 5) translational displacement in X, m/s
         56   -2.407284077773E+001                                                     T               2         First time derivative of finite element node 6 (number of elements = 1; element order = 5) translational displacement in Y, m/s
         57   -7.784722399189E+001                                                     T               2         First time derivative of finite element node 6 (number of elements = 1; element order = 5) translational displacement in Z, m/s
         58    1.298168171618E+000                                                     T               2         First time derivative of finite element node 6 (number of elements = 1; element order = 5) rotational displacement in X, rad/s
         59    1.254904784761E-001                                                     T               2         First time derivative of finite element node 6 (number of elements = 1; element order = 5) rotational displacement in Y, rad/s
         60   -6.996397705370E-002                                                     T               2         First time derivative of finite element node 6 (number of elements = 1; element order = 5) rotational displacement in Z, rad/s

Order of continuous state derivatives:
   Row/Column Operating Point                                                   Rotating Frame? Derivative Order Description
   ---------- ---------------                                                   --------------- ---------------- -----------
          1    8.418689342595E-003                                                     T               2         First time derivative of finite element node 2 (number of elements = 1; element order = 5) translational displacement in X, m/s
          2   -3.357879325135E+000                                                     T               2         First time derivative of finite element node 2 (number of elements = 1; element order = 5) translational displacement in Y, m/s
          3   -1.072996266660E+001                                                     T               2         First time derivative of finite element node 2 (number of elements = 1; element order = 5) translational displacement in Z, m/s
          4    1.281960875578E+000                                                     T               2         First time derivative of finite element node 2 (number of elements = 1; element order = 5) rotational displacement in X, rad/s
          5    6.947782056241E-004                                                     T               2         First time derivative of finite element node 2 (number of elements = 1; element order = 5) rotational displacement in Y, rad/s
          6   -4.750086331904E-002                                                     T               2         First time derivative of finite element node 2 (number of elements = 1; element order = 5) rotational displacement in Z, rad/s
          7   -6.820913976742E-001                                                     T               2         First time derivative of finite element node 3 (number of elements = 1; element order = 5) translational displacement in X, m/s
          8   -8.970608670622E+000                                                     T               2         First time derivative of finite element node 3 (number of elements = 1; element order = 5) translational displacement in Y, m/s
          9   -2.882970540004E+001                                                     T               2         First time derivative of finite element node 3 (number of elements = 1; element order = 5) translational displacement in Z, m/s
         10    1.286959234048E+000                                                     T               2         First time derivative of finite element node 3 (number of elements = 1; element order = 5) rotational displacement in X, rad/s
         11    9.203289424872E-003                                                     T               2         First time derivative of finite element node 3 (number of elements = 1; element order = 5) rotational displacement in Y, rad/s
         12   -5.391143120692E-002                                                     T               2         First time derivative of finite element node 3 (number of elements = 1; element order = 5) rotational displacement in Z, rad/s
         13   -1.582448124033E+000                                                     T               2         First time derivative of finite element node 4 (number of elements = 1; element order = 5) translational displacement in X, m/s
         14   -1.567466433304E+001                                                     T               2         First time derivative of finite element node 4 (number of elements = 1; element order = 5) translational displacement in Y, m/s
         15   -5.046789248285E+001                                                     T               2         First time derivative of finite element node 4 (number of elements = 1; element order = 5) translational displacement in Z, m/s
         16    1.293208591646E+000                                                     T               2         First time derivative of finite element node 4 (number of elements = 1; element order = 5) rotational displacement in X, rad/s
         17    5.154222521579E-002                                                     T               2         First time derivative of finite element node 4 (number of elements = 1; element order = 5) rotational displacement in Y, rad/s
         18   -7.033481567949E-002                                                     T               2         First time derivative of finite element node 4 (number of elements = 1; element order = 5) rotational displacement in Z, rad/s
         19   -2.305327339912E+000                                                     T               2         First time derivative of finite element node 5 (number of elements = 1; element order = 5) translational displacement in X, m/s
         20   -2.131268681239E+001                                                     T               2         First time derivative of finite element node 5 (number of elements = 1; element order = 5) translational displacement in Y, m/s
         21   -6.881144453261E+001                                                     T               2         First time derivative of finite element node 5 (number of elements = 1; element order = 5) translational displacement in Z, m/s
         22    1.297062720027E+000                                                     T               2         First time derivative of finite element node 5 (number of elements = 1; element order = 5) rotational displacement in X, rad/s
         23    1.096754401401E-001                                                     T               2         First time derivative of finite element node 5 (number of elements = 1; element order = 5) rotational displacement in Y, rad/s
         24   -7.794004158165E-002                                                     T               2         First time derivative of finite element node 5 (number of elements = 1; element order = 5) rotational displacement in Z, rad/s
         25   -2.564374522607E+000                                                     T               2         First time derivative of finite element node 6 (number of elements = 1; element order = 5) translational displacement in X, m/s
         26   -2.407284077773E+001                                                     T               2         First time derivative of finite element node 6 (number of elements = 1; element order = 5) translational displacement in Y, m/s
         27   -7.784722399189E+001                                                     T               2         First time derivative of finite element node 6 (number of elements = 1; element order = 5) translational displacement in Z, m/s
         28    1.298168171618E+000                                                     T               2         First time derivative of finite element node 6 (number of elements = 1; element order = 5) rotational displacement in X, rad/s
         29    1.254904784761E-001                                                     T               2         First time derivative of finite element node 6 (number of elements = 1; element order = 5) rotational displacement in Y, rad/s
         30   -6.996397705370E-002                                                     T               2         First time derivative of finite element node 6 (number of elements = 1; element order = 5) rotational displacement in Z, rad/s
         31   -2.486919884326E-001                                                     T               2         First time derivative of First time derivative of finite element node 2 (number of elements = 1; element order = 5) translational displacement in X, m/s/s
         32    1.367543025097E+001                                                     T               2         First time derivative of First time derivative of finite element node 2 (number of elements = 1; element order = 5) translational displacement in Y, m/s/s
         33   -4.454108983635E+000                                                     T               2         First time derivative of First time derivative of finite element node 2 (number of elements = 1; element order = 5) translational displacement in Z, m/s/s
         34    2.841948017653E-002                                                     T               2         First time derivative of First time derivative of finite element node 2 (number of elements = 1; element order = 5) rotational displacement in X, rad/s/s
         35    2.143134922250E-002                                                     T               2         First time derivative of First time derivative of finite element node 2 (number of elements = 1; element order = 5) rotational displacement in Y, rad/s/s
         36   -1.515906826594E-002                                                     T               2         First time derivative of First time derivative of finite element node 2 (number of elements = 1; element order = 5) rotational displacement in Z, rad/s/s
         37   -6.106503866152E-001                                                     T               2         First time derivative of First time derivative of finite element node 3 (number of elements = 1; element order = 5) translational displacement in X, m/s/s
         38    3.688835546703E+001                                                     T               2         First time derivative of First time derivative of finite element node 3 (number of elements = 1; element order = 5) translational displacement in Y, m/s/s
         39   -1.188721433576E+001                                                     T               2         First time derivative of First time derivative of finite element node 3 (number of elements = 1; element order = 5) translational displacement in Z, m/s/s
         40    8.151140538964E-003                                                     T               2         First time derivative of First time derivative of finite element node 3 (number of elements = 1; element order = 5) rotational displacement in X, rad/s/s
         41    1.001603897282E-001                                                     T               2         First time derivative of First time derivative of finite element node 3 (number of elements = 1; element order = 5) rotational displacement in Y, rad/s/s
         42   -4.231278732599E-003                                                     T               2         First time derivative of First time derivative of finite element node 3 (number of elements = 1; element order = 5) rotational displacement in Z, rad/s/s
         43   -2.683202647510E-001                                                     T               2         First time derivative of First time derivative of finite element node 4 (number of elements = 1; element order = 5) translational displacement in X, m/s/s
         44    6.491243401682E+001                                                     T               2         First time derivative of First time derivative of finite element node 4 (number of elements = 1; element order = 5) translational displacement in Y, m/s/s
         45   -2.049726657644E+001                                                     T               2         First time derivative of First time derivative of finite element node 4 (number of elements = 1; element order = 5) translational displacement in Z, m/s/s
         46   -2.114640541590E-002                                                     T               2         First time derivative of First time derivative of finite element node 4 (number of elements = 1; element order = 5) rotational displacement in X, rad/s/s
         47    4.507790654153E-001                                                     T               2         First time derivative of First time derivative of finite element node 4 (number of elements = 1; element order = 5) rotational displacement in Y, rad/s/s
         48   -3.620193933460E-002                                                     T               2         First time derivative of First time derivative of finite element node 4 (number of elements = 1; element order = 5) rotational displacement in Z, rad/s/s
         49   -2.171138413234E+000                                                     T               2         First time derivative of First time derivative of finite element node 5 (number of elements = 1; element order = 5) translational displacement in X, m/s/s
         50    8.874749565452E+001                                                     T               2         First time derivative of First time derivative of finite element node 5 (number of elements = 1; element order = 5) translational displacement in Y, m/s/s
         51   -2.761926118091E+001                                                     T               2         First time derivative of First time derivative of finite element node 5 (number of elements = 1; element order = 5) translational displacement in Z, m/s/s
         52   -9.033450968896E-002                                                     T               2         First time derivative of First time derivative of finite element node 5 (number of elements = 1; element order = 5) rotational displacement in X, rad/s/s
         53    7.838858191343E-001                                                     T               2         First time derivative of First time derivative of finite element node 5 (number of elements = 1; element order = 5) rotational displacement in Y, rad/s/s
         54   -4.449004876276E-001                                                     T               2         First time derivative of First time derivative of finite element node 5 (number of elements = 1; element order = 5) rotational displacement in Z, rad/s/s
         55   -6.679481053924E+000                                                     T               2         First time derivative of First time derivative of finite element node 6 (number of elements = 1; element order = 5) translational displacement in X, m/s/s
         56    1.002565010006E+002                                                     T               2         First time derivative of First time derivative of finite element node 6 (number of elements = 1; element order = 5) translational displacement in Y, m/s/s
         57   -3.097338814425E+001                                                     T               2         First time derivative of First time derivative of finite element node 6 (number of elements = 1; element order = 5) translational displacement in Z, m/s/s
         58   -1.268365379886E-001                                                     T               2         First time derivative of First time derivative of finite element node 6 (number of elements = 1; element order = 5) rotational displacement in X, rad/s/s