
Linearized model: Predictions were generated on 12-Sep-2024 at 13:53:08 using OpenFAST, compiled on Sep 12 2024 at 13:33:28 as a 64-bit application using double precision at commit HEAD-HASH-NOTFOUND
 linked with  NWTC Subroutine Library; ElastoDyn; BeamDyn; InflowWind; AeroDyn; ServoDyn

Description from the FAST input file: NREL 5.0 MW Baseline Wind Turbine (Onshore), Linearization with AeroDyn + BD

Simulation information:
   Simulation time:                     1.0005 s
   Rotor Speed:                         1.2815 rad/s
   Azimuth:                             1.2721 rad
   Wind Speed:                          8.0000 m/s
   Number of continuous states:       228
   Number of discrete states:           0
   Number of constraint states:         0
   Number of inputs:                   60
   Number of outputs:                   0
   Jacobians included in this file?    No

Order of continuous states:
   Row/Column Operating Point                                                   Rotating Frame? Derivative Order Description
   ---------- ---------------                                                   --------------- ---------------- -----------
          1   -7.920208596114E+000                                                     T               2         vind (axial) at blade 1, node 1, m/s
          2    0.000000000000E+000                                                     T               2         vind (tangential) at blade 1, node 1, m/s
          3    0.000000000000E+000                                                     T               2         vind (axial) at blade 1, node 2, m/s
          4    0.000000000000E+000                                                     T               2         vind (tangential) at blade 1, node 2, m/s
          5    0.000000000000E+000                                                     T               2         vind (axial) at blade 1, node 3, m/s
          6    0.000000000000E+000                                                     T               2         vind (tangential) at blade 1, node 3, m/s
          7    0.000000000000E+000                                                     T               2         vind (axial) at blade 1, node 4, m/s
          8    0.000000000000E+000                                                     T               2         vind (tangential) at blade 1, node 4, m/s
          9   -2.218725327665E+000                                                     T               2         vind (axial) at blade 1, node 5, m/s
         10    8.021294306748E-001                                                     T               2         vind (tangential) at blade 1, node 5, m/s
         11   -2.072857733456E+000                                                     T               2         vind (axial) at blade 1, node 6, m/s
         12    5.836049221345E-001                                                     T               2         vind (tangential) at blade 1, node 6, m/s
         13   -1.838282856903E+000                                                     T               2         vind (axial) at blade 1, node 7, m/s
         14    4.316446957788E-001                                                     T               2         vind (tangential) at blade 1, node 7, m/s
         15   -1.863255735488E+000                                                     T               2         vind (axial) at blade 1, node 8, m/s
         16    3.617587838791E-001                                                     T               2         vind (tangential) at blade 1, node 8, m/s
         17   -2.256760481811E+000                                                     T               2         vind (axial) at blade 1, node 9, m/s
         18    3.481943242109E-001                                                     T               2         vind (tangential) at blade 1, node 9, m/s
         19   -2.406987915272E+000                                                     T               2         vind (axial) at blade 1, node 10, m/s
         20    3.131804625840E-001                                                     T               2         vind (tangential) at blade 1, node 10, m/s
         21   -2.948490436719E+000                                                     T               2         vind (axial) at blade 1, node 11, m/s
         22    3.021087897966E-001                                                     T               2         vind (tangential) at blade 1, node 11, m/s
         23   -3.343359828723E+000                                                     T               2         vind (axial) at blade 1, node 12, m/s
         24    2.795278886975E-001                                                     T               2         vind (tangential) at blade 1, node 12, m/s
         25   -3.278873593010E+000                                                     T               2         vind (axial) at blade 1, node 13, m/s
         26    2.465042582000E-001                                                     T               2         vind (tangential) at blade 1, node 13, m/s
         27   -3.507054256847E+000                                                     T               2         vind (axial) at blade 1, node 14, m/s
         28    2.263877689520E-001                                                     T               2         vind (tangential) at blade 1, node 14, m/s
         29   -3.730666576449E+000                                                     T               2         vind (axial) at blade 1, node 15, m/s
         30    2.089098065789E-001                                                     T               2         vind (tangential) at blade 1, node 15, m/s
         31   -3.929238624902E+000                                                     T               2         vind (axial) at blade 1, node 16, m/s
         32    1.966322581479E-001                                                     T               2         vind (tangential) at blade 1, node 16, m/s
         33   -4.057035852829E+000                                                     T               2         vind (axial) at blade 1, node 17, m/s
         34    1.869566110990E-001                                                     T               2         vind (tangential) at blade 1, node 17, m/s
         35   -3.797351660466E+000                                                     T               2         vind (axial) at blade 1, node 18, m/s
         36    1.726152896490E-001                                                     T               2         vind (tangential) at blade 1, node 18, m/s
         37   -6.477916738363E+000                                                     T               2         vind (axial) at blade 1, node 19, m/s
         38    0.000000000000E+000                                                     T               2         vind (tangential) at blade 1, node 19, m/s
         39   -7.718200870720E+000                                                     T               2         vind (axial) at blade 2, node 1, m/s
         40    0.000000000000E+000                                                     T               2         vind (tangential) at blade 2, node 1, m/s
         41    0.000000000000E+000                                                     T               2         vind (axial) at blade 2, node 2, m/s
         42    0.000000000000E+000                                                     T               2         vind (tangential) at blade 2, node 2, m/s
         43    0.000000000000E+000                                                     T               2         vind (axial) at blade 2, node 3, m/s
         44    0.000000000000E+000                                                     T               2         vind (tangential) at blade 2, node 3, m/s
         45    0.000000000000E+000                                                     T               2         vind (axial) at blade 2, node 4, m/s
         46    0.000000000000E+000                                                     T               2         vind (tangential) at blade 2, node 4, m/s
         47   -2.194856750642E+000                                                     T               2         vind (axial) at blade 2, node 5, m/s
         48    7.695266358629E-001                                                     T               2         vind (tangential) at blade 2, node 5, m/s
         49   -2.048900450849E+000                                                     T               2         vind (axial) at blade 2, node 6, m/s
         50    5.662574853977E-001                                                     T               2         vind (tangential) at blade 2, node 6, m/s
         51   -1.822462103220E+000                                                     T               2         vind (axial) at blade 2, node 7, m/s
         52    4.221721231184E-001                                                     T               2         vind (tangential) at blade 2, node 7, m/s
         53   -1.857954888096E+000                                                     T               2         vind (axial) at blade 2, node 8, m/s
         54    3.568423549429E-001                                                     T               2         vind (tangential) at blade 2, node 8, m/s
         55   -2.265998691724E+000                                                     T               2         vind (axial) at blade 2, node 9, m/s
         56    3.463014190237E-001                                                     T               2         vind (tangential) at blade 2, node 9, m/s
         57   -2.425175551894E+000                                                     T               2         vind (axial) at blade 2, node 10, m/s
         58    3.130957895802E-001                                                     T               2         vind (tangential) at blade 2, node 10, m/s
         59   -2.981875950029E+000                                                     T               2         vind (axial) at blade 2, node 11, m/s
         60    3.032478396730E-001                                                     T               2         vind (tangential) at blade 2, node 11, m/s
         61   -3.386866513627E+000                                                     T               2         vind (axial) at blade 2, node 12, m/s
         62    2.817577545276E-001                                                     T               2         vind (tangential) at blade 2, node 12, m/s
         63   -3.328788639015E+000                                                     T               2         vind (axial) at blade 2, node 13, m/s
         64    2.495021059778E-001                                                     T               2         vind (tangential) at blade 2, node 13, m/s
         65   -3.564271446477E+000                                                     T               2         vind (axial) at blade 2, node 14, m/s
         66    2.302127570690E-001                                                     T               2         vind (tangential) at blade 2, node 14, m/s
         67   -3.793720982588E+000                                                     T               2         vind (axial) at blade 2, node 15, m/s
         68    2.135385090773E-001                                                     T               2         vind (tangential) at blade 2, node 15, m/s
         69   -3.996052003006E+000                                                     T               2         vind (axial) at blade 2, node 16, m/s
         70    2.020220954442E-001                                                     T               2         vind (tangential) at blade 2, node 16, m/s
         71   -4.160117541754E+000                                                     T               2         vind (axial) at blade 2, node 17, m/s
         72    1.923181164310E-001                                                     T               2         vind (tangential) at blade 2, node 17, m/s
         73   -3.910898767191E+000                                                     T               2         vind (axial) at blade 2, node 18, m/s
         74    1.797311256281E-001                                                     T               2         vind (tangential) at blade 2, node 18, m/s
         75   -6.569853682579E+000                                                     T               2         vind (axial) at blade 2, node 19, m/s
         76    0.000000000000E+000                                                     T               2         vind (tangential) at blade 2, node 19, m/s
         77   -7.851807841991E+000                                                     T               2         vind (axial) at blade 3, node 1, m/s
         78    0.000000000000E+000                                                     T               2         vind (tangential) at blade 3, node 1, m/s
         79    0.000000000000E+000                                                     T               2         vind (axial) at blade 3, node 2, m/s
         80    0.000000000000E+000                                                     T               2         vind (tangential) at blade 3, node 2, m/s
         81    0.000000000000E+000                                                     T               2         vind (axial) at blade 3, node 3, m/s
         82    0.000000000000E+000                                                     T               2         vind (tangential) at blade 3, node 3, m/s
         83    0.000000000000E+000                                                     T               2         vind (axial) at blade 3, node 4, m/s
         84    0.000000000000E+000                                                     T               2         vind (tangential) at blade 3, node 4, m/s
         85   -2.239329180442E+000                                                     T               2         vind (axial) at blade 3, node 5, m/s
         86    8.533974693963E-001                                                     T               2         vind (tangential) at blade 3, node 5, m/s
         87   -2.115835408883E+000                                                     T               2         vind (axial) at blade 3, node 6, m/s
         88    6.163009571892E-001                                                     T               2         vind (tangential) at blade 3, node 6, m/s
         89   -1.878322259490E+000                                                     T               2         vind (axial) at blade 3, node 7, m/s
         90    4.522382180364E-001                                                     T               2         vind (tangential) at blade 3, node 7, m/s
         91   -1.895037663385E+000                                                     T               2         vind (axial) at blade 3, node 8, m/s
         92    3.753384334966E-001                                                     T               2         vind (tangential) at blade 3, node 8, m/s
         93   -2.276211894262E+000                                                     T               2         vind (axial) at blade 3, node 9, m/s
         94    3.573124886447E-001                                                     T               2         vind (tangential) at blade 3, node 9, m/s
         95   -2.429488591865E+000                                                     T               2         vind (axial) at blade 3, node 10, m/s
         96    3.202976515328E-001                                                     T               2         vind (tangential) at blade 3, node 10, m/s
         97   -2.975010356646E+000                                                     T               2         vind (axial) at blade 3, node 11, m/s
         98    3.076022937664E-001                                                     T               2         vind (tangential) at blade 3, node 11, m/s
         99   -3.382086059535E+000                                                     T               2         vind (axial) at blade 3, node 12, m/s
        100    2.845359493193E-001                                                     T               2         vind (tangential) at blade 3, node 12, m/s
        101   -3.334783954159E+000                                                     T               2         vind (axial) at blade 3, node 13, m/s
        102    2.511832135489E-001                                                     T               2         vind (tangential) at blade 3, node 13, m/s
        103   -3.581992564655E+000                                                     T               2         vind (axial) at blade 3, node 14, m/s
        104    2.313751863372E-001                                                     T               2         vind (tangential) at blade 3, node 14, m/s
        105   -3.823131881189E+000                                                     T               2         vind (axial) at blade 3, node 15, m/s
        106    2.144576034739E-001                                                     T               2         vind (tangential) at blade 3, node 15, m/s
        107   -4.033459923825E+000                                                     T               2         vind (axial) at blade 3, node 16, m/s
        108    2.028441059216E-001                                                     T               2         vind (tangential) at blade 3, node 16, m/s
        109   -4.209021199577E+000                                                     T               2         vind (axial) at blade 3, node 17, m/s
        110    1.926809562968E-001                                                     T               2         vind (tangential) at blade 3, node 17, m/s
        111   -3.948133741205E+000                                                     T               2         vind (axial) at blade 3, node 18, m/s
        112    1.796608508055E-001                                                     T               2         vind (tangential) at blade 3, node 18, m/s
        113   -6.511069460808E+000                                                     T               2         vind (axial) at blade 3, node 19, m/s
        114    0.000000000000E+000                                                     T               2         vind (tangential) at blade 3, node 19, m/s
        115   -3.177019257168E+000                                                     T               2         First time derivative of vind (axial) at blade 1, node 1, m/s/s
        116    0.000000000000E+000                                                     T               2         First time derivative of vind (tangential) at blade 1, node 1, m/s/s
        117    0.000000000000E+000                                                     T               2         First time derivative of vind (axial) at blade 1, node 2, m/s/s
        118    0.000000000000E+000                                                     T               2         First time derivative of vind (tangential) at blade 1, node 2, m/s/s
        119    0.000000000000E+000                                                     T               2         First time derivative of vind (axial) at blade 1, node 3, m/s/s
        120    0.000000000000E+000                                                     T               2         First time derivative of vind (tangential) at blade 1, node 3, m/s/s
        121    0.000000000000E+000                                                     T               2         First time derivative of vind (axial) at blade 1, node 4, m/s/s
        122    0.000000000000E+000                                                     T               2         First time derivative of vind (tangential) at blade 1, node 4, m/s/s
        123   -8.917486655908E-001                                                     T               2         First time derivative of vind (axial) at blade 1, node 5, m/s/s
        124    3.240235650462E-001                                                     T               2         First time derivative of vind (tangential) at blade 1, node 5, m/s/s
        125   -8.352563764808E-001                                                     T               2         First time derivative of vind (axial) at blade 1, node 6, m/s/s
        126    2.362769077642E-001                                                     T               2         First time derivative of vind (tangential) at blade 1, node 6, m/s/s
        127   -7.428184220013E-001                                                     T               2         First time derivative of vind (axial) at blade 1, node 7, m/s/s
        128    1.753043670940E-001                                                     T               2         First time derivative of vind (tangential) at blade 1, node 7, m/s/s
        129   -7.545958400193E-001                                                     T               2         First time derivative of vind (axial) at blade 1, node 8, m/s/s
        130    1.473887356091E-001                                                     T               2         First time derivative of vind (tangential) at blade 1, node 8, m/s/s
        131   -9.140542866714E-001                                                     T               2         First time derivative of vind (axial) at blade 1, node 9, m/s/s
        132    1.421785116762E-001                                                     T               2         First time derivative of vind (tangential) at blade 1, node 9, m/s/s
        133   -9.783211694617E-001                                                     T               2         First time derivative of vind (axial) at blade 1, node 10, m/s/s
        134    1.286178766967E-001                                                     T               2         First time derivative of vind (tangential) at blade 1, node 10, m/s/s
        135   -1.199313167313E+000                                                     T               2         First time derivative of vind (axial) at blade 1, node 11, m/s/s
        136    1.248089628769E-001                                                     T               2         First time derivative of vind (tangential) at blade 1, node 11, m/s/s
        137   -1.364856806363E+000                                                     T               2         First time derivative of vind (axial) at blade 1, node 12, m/s/s
        138    1.166657974958E-001                                                     T               2         First time derivative of vind (tangential) at blade 1, node 12, m/s/s
        139   -1.344765892812E+000                                                     T               2         First time derivative of vind (axial) at blade 1, node 13, m/s/s
        140    1.043377417213E-001                                                     T               2         First time derivative of vind (tangential) at blade 1, node 13, m/s/s
        141   -1.447255208341E+000                                                     T               2         First time derivative of vind (axial) at blade 1, node 14, m/s/s
        142    9.761011419641E-002                                                     T               2         First time derivative of vind (tangential) at blade 1, node 14, m/s/s
        143   -1.549760573155E+000                                                     T               2         First time derivative of vind (axial) at blade 1, node 15, m/s/s
        144    9.219140273250E-002                                                     T               2         First time derivative of vind (tangential) at blade 1, node 15, m/s/s
        145   -1.643074421497E+000                                                     T               2         First time derivative of vind (axial) at blade 1, node 16, m/s/s
        146    8.885679045889E-002                                                     T               2         First time derivative of vind (tangential) at blade 1, node 16, m/s/s
        147   -1.709313618832E+000                                                     T               2         First time derivative of vind (axial) at blade 1, node 17, m/s/s
        148    8.666534866205E-002                                                     T               2         First time derivative of vind (tangential) at blade 1, node 17, m/s/s
        149   -1.638009584666E+000                                                     T               2         First time derivative of vind (axial) at blade 1, node 18, m/s/s
        150    8.317441962942E-002                                                     T               2         First time derivative of vind (tangential) at blade 1, node 18, m/s/s
        151   -2.922220538100E+000                                                     T               2         First time derivative of vind (axial) at blade 1, node 19, m/s/s
        152    0.000000000000E+000                                                     T               2         First time derivative of vind (tangential) at blade 1, node 19, m/s/s
        153   -3.109550748305E+000                                                     T               2         First time derivative of vind (axial) at blade 2, node 1, m/s/s
        154    0.000000000000E+000                                                     T               2         First time derivative of vind (tangential) at blade 2, node 1, m/s/s
        155    0.000000000000E+000                                                     T               2         First time derivative of vind (axial) at blade 2, node 2, m/s/s
        156    0.000000000000E+000                                                     T               2         First time derivative of vind (tangential) at blade 2, node 2, m/s/s
        157    0.000000000000E+000                                                     T               2         First time derivative of vind (axial) at blade 2, node 3, m/s/s
        158    0.000000000000E+000                                                     T               2         First time derivative of vind (tangential) at blade 2, node 3, m/s/s
        159    0.000000000000E+000                                                     T               2         First time derivative of vind (axial) at blade 2, node 4, m/s/s
        160    0.000000000000E+000                                                     T               2         First time derivative of vind (tangential) at blade 2, node 4, m/s/s
        161   -8.862000279826E-001                                                     T               2         First time derivative of vind (axial) at blade 2, node 5, m/s/s
        162    3.120122347615E-001                                                     T               2         First time derivative of vind (tangential) at blade 2, node 5, m/s/s
        163   -8.276319108395E-001                                                     T               2         First time derivative of vind (axial) at blade 2, node 6, m/s/s
        164    2.296176742922E-001                                                     T               2         First time derivative of vind (tangential) at blade 2, node 6, m/s/s
        165   -7.368736773722E-001                                                     T               2         First time derivative of vind (axial) at blade 2, node 7, m/s/s
        166    1.713530358824E-001                                                     T               2         First time derivative of vind (tangential) at blade 2, node 7, m/s/s
        167   -7.516779417308E-001                                                     T               2         First time derivative of vind (axial) at blade 2, node 8, m/s/s
        168    1.449971898737E-001                                                     T               2         First time derivative of vind (tangential) at blade 2, node 8, m/s/s
        169   -9.163405841463E-001                                                     T               2         First time derivative of vind (axial) at blade 2, node 9, m/s/s
        170    1.408450539965E-001                                                     T               2         First time derivative of vind (tangential) at blade 2, node 9, m/s/s
        171   -9.829701789894E-001                                                     T               2         First time derivative of vind (axial) at blade 2, node 10, m/s/s
        172    1.278350772455E-001                                                     T               2         First time derivative of vind (tangential) at blade 2, node 10, m/s/s
        173   -1.209378041031E+000                                                     T               2         First time derivative of vind (axial) at blade 2, node 11, m/s/s
        174    1.243816793190E-001                                                     T               2         First time derivative of vind (tangential) at blade 2, node 11, m/s/s
        175   -1.377734770841E+000                                                     T               2         First time derivative of vind (axial) at blade 2, node 12, m/s/s
        176    1.165076890615E-001                                                     T               2         First time derivative of vind (tangential) at blade 2, node 12, m/s/s
        177   -1.359274368852E+000                                                     T               2         First time derivative of vind (axial) at blade 2, node 13, m/s/s