
Linearized model: Predictions were generated on 11-Mar-2024 at 16:43:21 using OpenFAST, compiled as a 64-bit application using double precision at commit -128-NOTFOUND
 linked with  NWTC Subroutine Library; ElastoDyn; BeamDyn; InflowWind; AeroDyn; ServoDyn

Description from the FAST input file: NREL 5.0 MW Baseline Wind Turbine (Onshore), Linearization with AD15 + BD

Simulation information:
   Simulation time:                     1.0005 s
   Rotor Speed:                         1.2814 rad/s
   Azimuth:                             1.2721 rad
   Wind Speed:                          8.0000 m/s
   Number of continuous states:        60
   Number of discrete states:           0
   Number of constraint states:         0
   Number of inputs:                    0
   Number of outputs:                  12
   Jacobians included in this file?    No

Order of continuous states:
   Row/Column Operating Point                                                   Rotating Frame? Derivative Order Description
   ---------- ---------------                                                   --------------- ---------------- -----------
          1   -4.291377111005E-002                                                     T               2         finite element node 2 (number of elements = 1; element order = 5) translational displacement in X, m
          2   -8.329271200862E+000                                                     T               2         finite element node 2 (number of elements = 1; element order = 5) translational displacement in Y, m
          3   -6.123019621999E+000                                                     T               2         finite element node 2 (number of elements = 1; element order = 5) translational displacement in Z, m
          4    1.317094054308E+000                                                     T               2         finite element node 2 (number of elements = 1; element order = 5) rotational displacement in X, rad
          5    6.232807459912E-003                                                     T               2         finite element node 2 (number of elements = 1; element order = 5) rotational displacement in Y, rad
          6   -5.776151014094E-002                                                     T               2         finite element node 2 (number of elements = 1; element order = 5) rotational displacement in Z, rad
          7   -3.169801687115E-001                                                     T               2         finite element node 3 (number of elements = 1; element order = 5) translational displacement in X, m
          8   -2.244318923178E+001                                                     T               2         finite element node 3 (number of elements = 1; element order = 5) translational displacement in Y, m
          9   -1.657855704672E+001                                                     T               2         finite element node 3 (number of elements = 1; element order = 5) translational displacement in Z, m
         10    1.323468944423E+000                                                     T               2         finite element node 3 (number of elements = 1; element order = 5) rotational displacement in X, rad
         11    2.297836658127E-002                                                     T               2         finite element node 3 (number of elements = 1; element order = 5) rotational displacement in Y, rad
         12   -4.757419433794E-002                                                     T               2         finite element node 3 (number of elements = 1; element order = 5) rotational displacement in Z, rad
         13   -1.215794534045E-001                                                     T               2         finite element node 4 (number of elements = 1; element order = 5) translational displacement in X, m
         14   -3.926319330847E+001                                                     T               2         finite element node 4 (number of elements = 1; element order = 5) translational displacement in Y, m
         15   -2.913461617216E+001                                                     T               2         finite element node 4 (number of elements = 1; element order = 5) translational displacement in Z, m
         16    1.331276610329E+000                                                     T               2         finite element node 4 (number of elements = 1; element order = 5) rotational displacement in X, rad
         17    6.524979030354E-002                                                     T               2         finite element node 4 (number of elements = 1; element order = 5) rotational displacement in Y, rad
         18   -2.510146305153E-002                                                     T               2         finite element node 4 (number of elements = 1; element order = 5) rotational displacement in Z, rad
         19    7.432247750826E-001                                                     T               2         finite element node 5 (number of elements = 1; element order = 5) translational displacement in X, m
         20   -5.341755160102E+001                                                     T               2         finite element node 5 (number of elements = 1; element order = 5) translational displacement in Y, m
         21   -3.980202573123E+001                                                     T               2         finite element node 5 (number of elements = 1; element order = 5) translational displacement in Z, m
         22    1.335083149916E+000                                                     T               2         finite element node 5 (number of elements = 1; element order = 5) rotational displacement in X, rad
         23    1.143841051547E-001                                                     T               2         finite element node 5 (number of elements = 1; element order = 5) rotational displacement in Y, rad
         24   -1.771730348503E-004                                                     T               2         finite element node 5 (number of elements = 1; element order = 5) rotational displacement in Z, rad
         25    1.427838837357E+000                                                     T               2         finite element node 6 (number of elements = 1; element order = 5) translational displacement in X, m
         26   -6.033414423460E+001                                                     T               2         finite element node 6 (number of elements = 1; element order = 5) translational displacement in Y, m
         27   -4.505548436353E+001                                                     T               2         finite element node 6 (number of elements = 1; element order = 5) translational displacement in Z, m
         28    1.335317526984E+000                                                     T               2         finite element node 6 (number of elements = 1; element order = 5) rotational displacement in X, rad
         29    1.329058969766E-001                                                     T               2         finite element node 6 (number of elements = 1; element order = 5) rotational displacement in Y, rad
         30    9.076610834237E-003                                                     T               2         finite element node 6 (number of elements = 1; element order = 5) rotational displacement in Z, rad
         31   -7.641735670669E-002                                                     T               2         First time derivative of finite element node 2 (number of elements = 1; element order = 5) translational displacement in X, m/s
         32   -3.283288345925E+000                                                     T               2         First time derivative of finite element node 2 (number of elements = 1; element order = 5) translational displacement in Y, m/s
         33   -1.060347065024E+001                                                     T               2         First time derivative of finite element node 2 (number of elements = 1; element order = 5) translational displacement in Z, m/s
         34    1.279099298331E+000                                                     T               2         First time derivative of finite element node 2 (number of elements = 1; element order = 5) rotational displacement in X, rad/s
         35    8.854642320815E-003                                                     T               2         First time derivative of finite element node 2 (number of elements = 1; element order = 5) rotational displacement in Y, rad/s
         36   -5.996468442886E-002                                                     T               2         First time derivative of finite element node 2 (number of elements = 1; element order = 5) rotational displacement in Z, rad/s
         37   -8.674153144690E-001                                                     T               2         First time derivative of finite element node 3 (number of elements = 1; element order = 5) translational displacement in X, m/s
         38   -8.761332766311E+000                                                     T               2         First time derivative of finite element node 3 (number of elements = 1; element order = 5) translational displacement in Y, m/s
         39   -2.863662590481E+001                                                     T               2         First time derivative of finite element node 3 (number of elements = 1; element order = 5) translational displacement in Z, m/s
         40    1.276984557864E+000                                                     T               2         First time derivative of finite element node 3 (number of elements = 1; element order = 5) rotational displacement in X, rad/s
         41    1.882845973664E-002                                                     T               2         First time derivative of finite element node 3 (number of elements = 1; element order = 5) rotational displacement in Y, rad/s
         42   -6.059276352184E-002                                                     T               2         First time derivative of finite element node 3 (number of elements = 1; element order = 5) rotational displacement in Z, rad/s
         43   -1.727994888167E+000                                                     T               2         First time derivative of finite element node 4 (number of elements = 1; element order = 5) translational displacement in X, m/s
         44   -1.513740122727E+001                                                     T               2         First time derivative of finite element node 4 (number of elements = 1; element order = 5) translational displacement in Y, m/s
         45   -5.011191367559E+001                                                     T               2         First time derivative of finite element node 4 (number of elements = 1; element order = 5) translational displacement in Z, m/s
         46    1.276625804765E+000                                                     T               2         First time derivative of finite element node 4 (number of elements = 1; element order = 5) rotational displacement in X, rad/s
         47    6.772879307720E-002                                                     T               2         First time derivative of finite element node 4 (number of elements = 1; element order = 5) rotational displacement in Y, rad/s
         48   -6.491494197605E-002                                                     T               2         First time derivative of finite element node 4 (number of elements = 1; element order = 5) rotational displacement in Z, rad/s
         49   -2.201310725549E+000                                                     T               2         First time derivative of finite element node 5 (number of elements = 1; element order = 5) translational displacement in X, m/s
         50   -2.041318912179E+001                                                     T               2         First time derivative of finite element node 5 (number of elements = 1; element order = 5) translational displacement in Y, m/s
         51   -6.828633812565E+001                                                     T               2         First time derivative of finite element node 5 (number of elements = 1; element order = 5) translational displacement in Z, m/s
         52    1.278186241330E+000                                                     T               2         First time derivative of finite element node 5 (number of elements = 1; element order = 5) rotational displacement in X, rad/s
         53    1.382286979456E-001                                                     T               2         First time derivative of finite element node 5 (number of elements = 1; element order = 5) rotational displacement in Y, rad/s
         54   -5.809387425026E-002                                                     T               2         First time derivative of finite element node 5 (number of elements = 1; element order = 5) rotational displacement in Z, rad/s
         55   -2.243274415528E+000                                                     T               2         First time derivative of finite element node 6 (number of elements = 1; element order = 5) translational displacement in X, m/s
         56   -2.297239442829E+001                                                     T               2         First time derivative of finite element node 6 (number of elements = 1; element order = 5) translational displacement in Y, m/s
         57   -7.725065894502E+001                                                     T               2         First time derivative of finite element node 6 (number of elements = 1; element order = 5) translational displacement in Z, m/s
         58    1.279281273188E+000                                                     T               2         First time derivative of finite element node 6 (number of elements = 1; element order = 5) rotational displacement in X, rad/s
         59    1.595070484651E-001                                                     T               2         First time derivative of finite element node 6 (number of elements = 1; element order = 5) rotational displacement in Y, rad/s
         60   -4.289166448393E-002                                                     T               2         First time derivative of finite element node 6 (number of elements = 1; element order = 5) rotational displacement in Z, rad/s

Order of continuous state derivatives:
   Row/Column Operating Point                                                   Rotating Frame? Derivative Order Description
   ---------- ---------------                                                   --------------- ---------------- -----------
          1   -7.641735670669E-002                                                     T               2         First time derivative of finite element node 2 (number of elements = 1; element order = 5) translational displacement in X, m/s
          2   -3.283288345925E+000                                                     T               2         First time derivative of finite element node 2 (number of elements = 1; element order = 5) translational displacement in Y, m/s
          3   -1.060347065024E+001                                                     T               2         First time derivative of finite element node 2 (number of elements = 1; element order = 5) translational displacement in Z, m/s
          4    1.279099298331E+000                                                     T               2         First time derivative of finite element node 2 (number of elements = 1; element order = 5) rotational displacement in X, rad/s
          5    8.854642320815E-003                                                     T               2         First time derivative of finite element node 2 (number of elements = 1; element order = 5) rotational displacement in Y, rad/s
          6   -5.996468442886E-002                                                     T               2         First time derivative of finite element node 2 (number of elements = 1; element order = 5) rotational displacement in Z, rad/s
          7   -8.674153144690E-001                                                     T               2         First time derivative of finite element node 3 (number of elements = 1; element order = 5) translational displacement in X, m/s
          8   -8.761332766311E+000                                                     T               2         First time derivative of finite element node 3 (number of elements = 1; element order = 5) translational displacement in Y, m/s
          9   -2.863662590481E+001                                                     T               2         First time derivative of finite element node 3 (number of elements = 1; element order = 5) translational displacement in Z, m/s
         10    1.276984557864E+000                                                     T               2         First time derivative of finite element node 3 (number of elements = 1; element order = 5) rotational displacement in X, rad/s
         11    1.882845973664E-002                                                     T               2         First time derivative of finite element node 3 (number of elements = 1; element order = 5) rotational displacement in Y, rad/s
         12   -6.059276352184E-002                                                     T               2         First time derivative of finite element node 3 (number of elements = 1; element order = 5) rotational displacement in Z, rad/s
         13   -1.727994888167E+000                                                     T               2         First time derivative of finite element node 4 (number of elements = 1; element order = 5) translational displacement in X, m/s
         14   -1.513740122727E+001                                                     T               2         First time derivative of finite element node 4 (number of elements = 1; element order = 5) translational displacement in Y, m/s
         15   -5.011191367559E+001                                                     T               2         First time derivative of finite element node 4 (number of elements = 1; element order = 5) translational displacement in Z, m/s
         16    1.276625804765E+000                                                     T               2         First time derivative of finite element node 4 (number of elements = 1; element order = 5) rotational displacement in X, rad/s
         17    6.772879307720E-002                                                     T               2         First time derivative of finite element node 4 (number of elements = 1; element order = 5) rotational displacement in Y, rad/s
         18   -6.491494197605E-002                                                     T               2         First time derivative of finite element node 4 (number of elements = 1; element order = 5) rotational displacement in Z, rad/s
         19   -2.201310725549E+000                                                     T               2         First time derivative of finite element node 5 (number of elements = 1; element order = 5) translational displacement in X, m/s
         20   -2.041318912179E+001                                                     T               2         First time derivative of finite element node 5 (number of elements = 1; element order = 5) translational displacement in Y, m/s
         21   -6.828633812565E+001                                                     T               2         First time derivative of finite element node 5 (number of elements = 1; element order = 5) translational displacement in Z, m/s
         22    1.278186241330E+000                                                     T               2         First time derivative of finite element node 5 (number of elements = 1; element order = 5) rotational displacement in X, rad/s
         23    1.382286979456E-001                                                     T               2         First time derivative of finite element node 5 (number of elements = 1; element order = 5) rotational displacement in Y, rad/s
         24   -5.809387425026E-002                                                     T               2         First time derivative of finite element node 5 (number of elements = 1; element order = 5) rotational displacement in Z, rad/s
         25   -2.243274415528E+000                                                     T               2         First time derivative of finite element node 6 (number of elements = 1; element order = 5) translational displacement in X, m/s
         26   -2.297239442829E+001                                                     T               2         First time derivative of finite element node 6 (number of elements = 1; element order = 5) translational displacement in Y, m/s
         27   -7.725065894502E+001                                                     T               2         First time derivative of finite element node 6 (number of elements = 1; element order = 5) translational displacement in Z, m/s
         28    1.279281273188E+000                                                     T               2         First time derivative of finite element node 6 (number of elements = 1; element order = 5) rotational displacement in X, rad/s
         29    1.595070484651E-001                                                     T               2         First time derivative of finite element node 6 (number of elements = 1; element order = 5) rotational displacement in Y, rad/s
         30   -4.289166448393E-002                                                     T               2         First time derivative of finite element node 6 (number of elements = 1; element order = 5) rotational displacement in Z, rad/s
         31   -5.212180877980E-001                                                     T               2         First time derivative of First time derivative of finite element node 2 (number of elements = 1; element order = 5) translational displacement in X, m/s/s
         32    1.357312526970E+001                                                     T               2         First time derivative of First time derivative of finite element node 2 (number of elements = 1; element order = 5) translational displacement in Y, m/s/s
         33   -4.587993245900E+000                                                     T               2         First time derivative of First time derivative of finite element node 2 (number of elements = 1; element order = 5) translational displacement in Z, m/s/s
         34    3.919126865070E-002                                                     T               2         First time derivative of First time derivative of finite element node 2 (number of elements = 1; element order = 5) rotational displacement in X, rad/s/s
         35   -4.962169289186E-003                                                     T               2         First time derivative of First time derivative of finite element node 2 (number of elements = 1; element order = 5) rotational displacement in Y, rad/s/s
         36   -2.377032234979E-002                                                     T               2         First time derivative of First time derivative of finite element node 2 (number of elements = 1; element order = 5) rotational displacement in Z, rad/s/s
         37   -1.280958237293E+000                                                     T               2         First time derivative of First time derivative of finite element node 3 (number of elements = 1; element order = 5) translational displacement in X, m/s/s
         38    3.648708161886E+001                                                     T               2         First time derivative of First time derivative of finite element node 3 (number of elements = 1; element order = 5) translational displacement in Y, m/s/s
         39   -1.216638393505E+001                                                     T               2         First time derivative of First time derivative of finite element node 3 (number of elements = 1; element order = 5) translational displacement in Z, m/s/s
         40    4.064750521034E-002                                                     T               2         First time derivative of First time derivative of finite element node 3 (number of elements = 1; element order = 5) rotational displacement in X, rad/s/s
         41    1.497344462892E-001                                                     T               2         First time derivative of First time derivative of finite element node 3 (number of elements = 1; element order = 5) rotational displacement in Y, rad/s/s
         42   -2.180303627243E-002                                                     T               2         First time derivative of First time derivative of finite element node 3 (number of elements = 1; element order = 5) rotational displacement in Z, rad/s/s
         43   -8.010728531991E-001                                                     T               2         First time derivative of First time derivative of finite element node 4 (number of elements = 1; element order = 5) translational displacement in X, m/s/s
         44    6.380141531127E+001                                                     T               2         First time derivative of First time derivative of finite element node 4 (number of elements = 1; element order = 5) translational displacement in Y, m/s/s
         45   -2.089846699167E+001                                                     T               2         First time derivative of First time derivative of finite element node 4 (number of elements = 1; element order = 5) translational displacement in Z, m/s/s
         46    1.167126976065E-002                                                     T               2         First time derivative of First time derivative of finite element node 4 (number of elements = 1; element order = 5) rotational displacement in X, rad/s/s
         47    8.572551790757E-001                                                     T               2         First time derivative of First time derivative of finite element node 4 (number of elements = 1; element order = 5) rotational displacement in Y, rad/s/s
         48   -9.787715591877E-002                                                     T               2         First time derivative of First time derivative of finite element node 4 (number of elements = 1; element order = 5) rotational displacement in Z, rad/s/s
         49   -1.983725639871E+000                                                     T               2         First time derivative of First time derivative of finite element node 5 (number of elements = 1; element order = 5) translational displacement in X, m/s/s
         50    8.687541171134E+001                                                     T               2         First time derivative of First time derivative of finite element node 5 (number of elements = 1; element order = 5) translational displacement in Y, m/s/s
         51   -2.827885047232E+001                                                     T               2         First time derivative of First time derivative of finite element node 5 (number of elements = 1; element order = 5) translational displacement in Z, m/s/s
         52   -7.527111090402E-002                                                     T               2         First time derivative of First time derivative of finite element node 5 (number of elements = 1; element order = 5) rotational displacement in X, rad/s/s
         53    1.650438232040E+000                                                     T               2         First time derivative of First time derivative of finite element node 5 (number of elements = 1; element order = 5) rotational displacement in Y, rad/s/s
         54   -6.004328768651E-001                                                     T               2         First time derivative of First time derivative of finite element node 5 (number of elements = 1; element order = 5) rotational displacement in Z, rad/s/s
         55   -6.253700970839E+000                                                     T               2         First time derivative of First time derivative of finite element node 6 (number of elements = 1; element order = 5) translational displacement in X, m/s/s
         56    9.797276915949E+001                                                     T               2         First time derivative of First time derivative of finite element node 6 (number of elements = 1; element order = 5) translational displacement in Y, m/s/s
         57   -3.209781363367E+001                                                     T               2         First time derivative of First time derivative of finite element node 6 (number of elements = 1; element order = 5) translational displacement in Z, m/s/s
         58   -1.155438726946E-001                                                     T               2         First time derivative of First time derivative of finite element node 6 (number of elements = 1; element order = 5) rotational displacement in X, rad/s/s