
Linearized model: Predictions were generated on 27-Feb-2025 at 19:39:49 using OpenFAST, compiled on Feb 27 2025 at 18:00:14 as a 64-bit application using double precision at commit HEAD-HASH-NOTFOUND
 linked with  NWTC Subroutine Library; ElastoDyn; BeamDyn; InflowWind; AeroDyn; ServoDyn

Description from the FAST input file: NREL 5.0 MW Baseline Wind Turbine (Onshore), Linearization with AeroDyn + BD

Simulation information:
   Simulation time:                     1.0005 s
   Rotor Speed:                         1.2815 rad/s
   Azimuth:                             1.2721 rad
   Wind Speed:                          8.0000 m/s
   Number of continuous states:       228
   Number of discrete states:           0
   Number of constraint states:         0
   Number of inputs:                   60
   Number of outputs:                   0
   Jacobians included in this file?    No

Order of continuous states:
   Row/Column Operating Point                                                   Rotating Frame? Derivative Order Description
   ---------- ---------------                                                   --------------- ---------------- -----------
          1   -7.920206502813E+000                                                     T               2         vind (axial) at blade 1, node 1, m/s
          2    0.000000000000E+000                                                     T               2         vind (tangential) at blade 1, node 1, m/s
          3    0.000000000000E+000                                                     T               2         vind (axial) at blade 1, node 2, m/s
          4    0.000000000000E+000                                                     T               2         vind (tangential) at blade 1, node 2, m/s
          5    0.000000000000E+000                                                     T               2         vind (axial) at blade 1, node 3, m/s
          6    0.000000000000E+000                                                     T               2         vind (tangential) at blade 1, node 3, m/s
          7    0.000000000000E+000                                                     T               2         vind (axial) at blade 1, node 4, m/s
          8    0.000000000000E+000                                                     T               2         vind (tangential) at blade 1, node 4, m/s
          9   -2.218724431752E+000                                                     T               2         vind (axial) at blade 1, node 5, m/s
         10    8.021289927700E-001                                                     T               2         vind (tangential) at blade 1, node 5, m/s
         11   -2.072856753738E+000                                                     T               2         vind (axial) at blade 1, node 6, m/s
         12    5.836045891437E-001                                                     T               2         vind (tangential) at blade 1, node 6, m/s
         13   -1.838281844501E+000                                                     T               2         vind (axial) at blade 1, node 7, m/s
         14    4.316444470629E-001                                                     T               2         vind (tangential) at blade 1, node 7, m/s
         15   -1.863254611058E+000                                                     T               2         vind (axial) at blade 1, node 8, m/s
         16    3.617586117046E-001                                                     T               2         vind (tangential) at blade 1, node 8, m/s
         17   -2.256758775441E+000                                                     T               2         vind (axial) at blade 1, node 9, m/s
         18    3.481942100443E-001                                                     T               2         vind (tangential) at blade 1, node 9, m/s
         19   -2.406985051174E+000                                                     T               2         vind (axial) at blade 1, node 10, m/s
         20    3.131804090078E-001                                                     T               2         vind (tangential) at blade 1, node 10, m/s
         21   -2.948484154049E+000                                                     T               2         vind (axial) at blade 1, node 11, m/s
         22    3.021088934422E-001                                                     T               2         vind (tangential) at blade 1, node 11, m/s
         23   -3.343348321418E+000                                                     T               2         vind (axial) at blade 1, node 12, m/s
         24    2.795281281404E-001                                                     T               2         vind (tangential) at blade 1, node 12, m/s
         25   -3.278854860151E+000                                                     T               2         vind (axial) at blade 1, node 13, m/s
         26    2.465045704458E-001                                                     T               2         vind (tangential) at blade 1, node 13, m/s
         27   -3.507027570269E+000                                                     T               2         vind (axial) at blade 1, node 14, m/s
         28    2.263880785745E-001                                                     T               2         vind (tangential) at blade 1, node 14, m/s
         29   -3.730631094709E+000                                                     T               2         vind (axial) at blade 1, node 15, m/s
         30    2.089100701193E-001                                                     T               2         vind (tangential) at blade 1, node 15, m/s
         31   -3.929197230697E+000                                                     T               2         vind (axial) at blade 1, node 16, m/s
         32    1.966324520653E-001                                                     T               2         vind (tangential) at blade 1, node 16, m/s
         33   -4.056994450927E+000                                                     T               2         vind (axial) at blade 1, node 17, m/s
         34    1.869567890239E-001                                                     T               2         vind (tangential) at blade 1, node 17, m/s
         35   -3.797320684359E+000                                                     T               2         vind (axial) at blade 1, node 18, m/s
         36    1.726156852382E-001                                                     T               2         vind (tangential) at blade 1, node 18, m/s
         37   -6.477974898901E+000                                                     T               2         vind (axial) at blade 1, node 19, m/s
         38    0.000000000000E+000                                                     T               2         vind (tangential) at blade 1, node 19, m/s
         39   -7.718199206212E+000                                                     T               2         vind (axial) at blade 2, node 1, m/s
         40    0.000000000000E+000                                                     T               2         vind (tangential) at blade 2, node 1, m/s
         41    0.000000000000E+000                                                     T               2         vind (axial) at blade 2, node 2, m/s
         42    0.000000000000E+000                                                     T               2         vind (tangential) at blade 2, node 2, m/s
         43    0.000000000000E+000                                                     T               2         vind (axial) at blade 2, node 3, m/s
         44    0.000000000000E+000                                                     T               2         vind (tangential) at blade 2, node 3, m/s
         45    0.000000000000E+000                                                     T               2         vind (axial) at blade 2, node 4, m/s
         46    0.000000000000E+000                                                     T               2         vind (tangential) at blade 2, node 4, m/s
         47   -2.194856624470E+000                                                     T               2         vind (axial) at blade 2, node 5, m/s
         48    7.695265948103E-001                                                     T               2         vind (tangential) at blade 2, node 5, m/s
         49   -2.048900557469E+000                                                     T               2         vind (axial) at blade 2, node 6, m/s
         50    5.662574860135E-001                                                     T               2         vind (tangential) at blade 2, node 6, m/s
         51   -1.822462617588E+000                                                     T               2         vind (axial) at blade 2, node 7, m/s
         52    4.221721823219E-001                                                     T               2         vind (tangential) at blade 2, node 7, m/s
         53   -1.857956131556E+000                                                     T               2         vind (axial) at blade 2, node 8, m/s
         54    3.568424789882E-001                                                     T               2         vind (tangential) at blade 2, node 8, m/s
         55   -2.266001489450E+000                                                     T               2         vind (axial) at blade 2, node 9, m/s
         56    3.463015817835E-001                                                     T               2         vind (tangential) at blade 2, node 9, m/s
         57   -2.425181002282E+000                                                     T               2         vind (axial) at blade 2, node 10, m/s
         58    3.130960150783E-001                                                     T               2         vind (tangential) at blade 2, node 10, m/s
         59   -2.981887546488E+000                                                     T               2         vind (axial) at blade 2, node 11, m/s
         60    3.032479569701E-001                                                     T               2         vind (tangential) at blade 2, node 11, m/s
         61   -3.386885476616E+000                                                     T               2         vind (axial) at blade 2, node 12, m/s
         62    2.817578978119E-001                                                     T               2         vind (tangential) at blade 2, node 12, m/s
         63   -3.328818222283E+000                                                     T               2         vind (axial) at blade 2, node 13, m/s
         64    2.495022484119E-001                                                     T               2         vind (tangential) at blade 2, node 13, m/s
         65   -3.564313445944E+000                                                     T               2         vind (axial) at blade 2, node 14, m/s
         66    2.302129569822E-001                                                     T               2         vind (tangential) at blade 2, node 14, m/s
         67   -3.793777321970E+000                                                     T               2         vind (axial) at blade 2, node 15, m/s
         68    2.135387086695E-001                                                     T               2         vind (tangential) at blade 2, node 15, m/s
         69   -3.996118185461E+000                                                     T               2         vind (axial) at blade 2, node 16, m/s
         70    2.020221440548E-001                                                     T               2         vind (tangential) at blade 2, node 16, m/s
         71   -4.160177989326E+000                                                     T               2         vind (axial) at blade 2, node 17, m/s
         72    1.923178387169E-001                                                     T               2         vind (tangential) at blade 2, node 17, m/s
         73   -3.910933364415E+000                                                     T               2         vind (axial) at blade 2, node 18, m/s
         74    1.797296565744E-001                                                     T               2         vind (tangential) at blade 2, node 18, m/s
         75   -6.569739754998E+000                                                     T               2         vind (axial) at blade 2, node 19, m/s
         76    0.000000000000E+000                                                     T               2         vind (tangential) at blade 2, node 19, m/s
         77   -7.851805902110E+000                                                     T               2         vind (axial) at blade 3, node 1, m/s
         78    0.000000000000E+000                                                     T               2         vind (tangential) at blade 3, node 1, m/s
         79    0.000000000000E+000                                                     T               2         vind (axial) at blade 3, node 2, m/s
         80    0.000000000000E+000                                                     T               2         vind (tangential) at blade 3, node 2, m/s
         81    0.000000000000E+000                                                     T               2         vind (axial) at blade 3, node 3, m/s
         82    0.000000000000E+000                                                     T               2         vind (tangential) at blade 3, node 3, m/s
         83    0.000000000000E+000                                                     T               2         vind (axial) at blade 3, node 4, m/s
         84    0.000000000000E+000                                                     T               2         vind (tangential) at blade 3, node 4, m/s
         85   -2.239328393357E+000                                                     T               2         vind (axial) at blade 3, node 5, m/s
         86    8.533969499329E-001                                                     T               2         vind (tangential) at blade 3, node 5, m/s
         87   -2.115834456472E+000                                                     T               2         vind (axial) at blade 3, node 6, m/s
         88    6.163005331566E-001                                                     T               2         vind (tangential) at blade 3, node 6, m/s
         89   -1.878321374150E+000                                                     T               2         vind (axial) at blade 3, node 7, m/s
         90    4.522379009248E-001                                                     T               2         vind (tangential) at blade 3, node 7, m/s
         91   -1.895036959576E+000                                                     T               2         vind (axial) at blade 3, node 8, m/s
         92    3.753382048827E-001                                                     T               2         vind (tangential) at blade 3, node 8, m/s
         93   -2.276211540618E+000                                                     T               2         vind (axial) at blade 3, node 9, m/s
         94    3.573123291680E-001                                                     T               2         vind (tangential) at blade 3, node 9, m/s
         95   -2.429488684875E+000                                                     T               2         vind (axial) at blade 3, node 10, m/s
         96    3.202975801158E-001                                                     T               2         vind (tangential) at blade 3, node 10, m/s
         97   -2.975011185810E+000                                                     T               2         vind (axial) at blade 3, node 11, m/s
         98    3.076022902014E-001                                                     T               2         vind (tangential) at blade 3, node 11, m/s
         99   -3.382087419998E+000                                                     T               2         vind (axial) at blade 3, node 12, m/s
        100    2.845360455676E-001                                                     T               2         vind (tangential) at blade 3, node 12, m/s
        101   -3.334785603217E+000                                                     T               2         vind (axial) at blade 3, node 13, m/s
        102    2.511834030857E-001                                                     T               2         vind (tangential) at blade 3, node 13, m/s
        103   -3.581994277960E+000                                                     T               2         vind (axial) at blade 3, node 14, m/s
        104    2.313754606165E-001                                                     T               2         vind (tangential) at blade 3, node 14, m/s
        105   -3.823133159111E+000                                                     T               2         vind (axial) at blade 3, node 15, m/s
        106    2.144579427949E-001                                                     T               2         vind (tangential) at blade 3, node 15, m/s
        107   -4.033460677211E+000                                                     T               2         vind (axial) at blade 3, node 16, m/s
        108    2.028444588064E-001                                                     T               2         vind (tangential) at blade 3, node 16, m/s
        109   -4.209018545550E+000                                                     T               2         vind (axial) at blade 3, node 17, m/s
        110    1.926814289391E-001                                                     T               2         vind (tangential) at blade 3, node 17, m/s
        111   -3.948131190822E+000                                                     T               2         vind (axial) at blade 3, node 18, m/s
        112    1.796610690960E-001                                                     T               2         vind (tangential) at blade 3, node 18, m/s
        113   -6.511076808170E+000                                                     T               2         vind (axial) at blade 3, node 19, m/s
        114    0.000000000000E+000                                                     T               2         vind (tangential) at blade 3, node 19, m/s
        115   -3.177018681684E+000                                                     T               2         First time derivative of vind (axial) at blade 1, node 1, m/s/s
        116    0.000000000000E+000                                                     T               2         First time derivative of vind (tangential) at blade 1, node 1, m/s/s
        117    0.000000000000E+000                                                     T               2         First time derivative of vind (axial) at blade 1, node 2, m/s/s
        118    0.000000000000E+000                                                     T               2         First time derivative of vind (tangential) at blade 1, node 2, m/s/s
        119    0.000000000000E+000                                                     T               2         First time derivative of vind (axial) at blade 1, node 3, m/s/s
        120    0.000000000000E+000                                                     T               2         First time derivative of vind (tangential) at blade 1, node 3, m/s/s
        121    0.000000000000E+000                                                     T               2         First time derivative of vind (axial) at blade 1, node 4, m/s/s
        122    0.000000000000E+000                                                     T               2         First time derivative of vind (tangential) at blade 1, node 4, m/s/s
        123   -8.917484255695E-001                                                     T               2         First time derivative of vind (axial) at blade 1, node 5, m/s/s
        124    3.240234484277E-001                                                     T               2         First time derivative of vind (tangential) at blade 1, node 5, m/s/s
        125   -8.352561182181E-001                                                     T               2         First time derivative of vind (axial) at blade 1, node 6, m/s/s
        126    2.362768207796E-001                                                     T               2         First time derivative of vind (tangential) at blade 1, node 6, m/s/s
        127   -7.428181596648E-001                                                     T               2         First time derivative of vind (axial) at blade 1, node 7, m/s/s
        128    1.753043036404E-001                                                     T               2         First time derivative of vind (tangential) at blade 1, node 7, m/s/s
        129   -7.545955517066E-001                                                     T               2         First time derivative of vind (axial) at blade 1, node 8, m/s/s
        130    1.473886928772E-001                                                     T               2         First time derivative of vind (tangential) at blade 1, node 8, m/s/s
        131   -9.140538520280E-001                                                     T               2         First time derivative of vind (axial) at blade 1, node 9, m/s/s
        132    1.421784840383E-001                                                     T               2         First time derivative of vind (tangential) at blade 1, node 9, m/s/s
        133   -9.783204543569E-001                                                     T               2         First time derivative of vind (axial) at blade 1, node 10, m/s/s
        134    1.286178636728E-001                                                     T               2         First time derivative of vind (tangential) at blade 1, node 10, m/s/s
        135   -1.199311654424E+000                                                     T               2         First time derivative of vind (axial) at blade 1, node 11, m/s/s
        136    1.248089864049E-001                                                     T               2         First time derivative of vind (tangential) at blade 1, node 11, m/s/s
        137   -1.364854175388E+000                                                     T               2         First time derivative of vind (axial) at blade 1, node 12, m/s/s
        138    1.166658482726E-001                                                     T               2         First time derivative of vind (tangential) at blade 1, node 12, m/s/s
        139   -1.344761853656E+000                                                     T               2         First time derivative of vind (axial) at blade 1, node 13, m/s/s
        140    1.043378030467E-001                                                     T               2         First time derivative of vind (tangential) at blade 1, node 13, m/s/s
        141   -1.447249819539E+000                                                     T               2         First time derivative of vind (axial) at blade 1, node 14, m/s/s
        142    9.761016887282E-002                                                     T               2         First time derivative of vind (tangential) at blade 1, node 14, m/s/s
        143   -1.549753920820E+000                                                     T               2         First time derivative of vind (axial) at blade 1, node 15, m/s/s
        144    9.219144319678E-002                                                     T               2         First time derivative of vind (tangential) at blade 1, node 15, m/s/s
        145   -1.643067153700E+000                                                     T               2         First time derivative of vind (axial) at blade 1, node 16, m/s/s
        146    8.885681584061E-002                                                     T               2         First time derivative of vind (tangential) at blade 1, node 16, m/s/s
        147   -1.709306753192E+000                                                     T               2         First time derivative of vind (axial) at blade 1, node 17, m/s/s
        148    8.666536894756E-002                                                     T               2         First time derivative of vind (tangential) at blade 1, node 17, m/s/s
        149   -1.638004704745E+000                                                     T               2         First time derivative of vind (axial) at blade 1, node 18, m/s/s
        150    8.317448217919E-002                                                     T               2         First time derivative of vind (tangential) at blade 1, node 18, m/s/s
        151   -2.922230307087E+000                                                     T               2         First time derivative of vind (axial) at blade 1, node 19, m/s/s
        152    0.000000000000E+000                                                     T               2         First time derivative of vind (tangential) at blade 1, node 19, m/s/s
        153   -3.109550289413E+000                                                     T               2         First time derivative of vind (axial) at blade 2, node 1, m/s/s
        154    0.000000000000E+000                                                     T               2         First time derivative of vind (tangential) at blade 2, node 1, m/s/s
        155    0.000000000000E+000                                                     T               2         First time derivative of vind (axial) at blade 2, node 2, m/s/s
        156    0.000000000000E+000                                                     T               2         First time derivative of vind (tangential) at blade 2, node 2, m/s/s
        157    0.000000000000E+000                                                     T               2         First time derivative of vind (axial) at blade 2, node 3, m/s/s
        158    0.000000000000E+000                                                     T               2         First time derivative of vind (tangential) at blade 2, node 3, m/s/s
        159    0.000000000000E+000                                                     T               2         First time derivative of vind (axial) at blade 2, node 4, m/s/s
        160    0.000000000000E+000                                                     T               2         First time derivative of vind (tangential) at blade 2, node 4, m/s/s
        161   -8.861999910646E-001                                                     T               2         First time derivative of vind (axial) at blade 2, node 5, m/s/s
        162    3.120122221805E-001                                                     T               2         First time derivative of vind (tangential) at blade 2, node 5, m/s/s
        163   -8.276319343136E-001                                                     T               2         First time derivative of vind (axial) at blade 2, node 6, m/s/s
        164    2.296176726612E-001                                                     T               2         First time derivative of vind (tangential) at blade 2, node 6, m/s/s
        165   -7.368738034743E-001                                                     T               2         First time derivative of vind (axial) at blade 2, node 7, m/s/s
        166    1.713530489827E-001                                                     T               2         First time derivative of vind (tangential) at blade 2, node 7, m/s/s
        167   -7.516782449516E-001                                                     T               2         First time derivative of vind (axial) at blade 2, node 8, m/s/s
        168    1.449972183356E-001                                                     T               2         First time derivative of vind (tangential) at blade 2, node 8, m/s/s
        169   -9.163412529190E-001                                                     T               2         First time derivative of vind (axial) at blade 2, node 9, m/s/s
        170    1.408450901981E-001                                                     T               2         First time derivative of vind (tangential) at blade 2, node 9, m/s/s
        171   -9.829714389041E-001                                                     T               2         First time derivative of vind (axial) at blade 2, node 10, m/s/s
        172    1.278351259611E-001                                                     T               2         First time derivative of vind (tangential) at blade 2, node 10, m/s/s
        173   -1.209380617708E+000                                                     T               2         First time derivative of vind (axial) at blade 2, node 11, m/s/s
        174    1.243817009614E-001                                                     T               2         First time derivative of vind (tangential) at blade 2, node 11, m/s/s
        175   -1.377738756067E+000                                                     T               2         First time derivative of vind (axial) at blade 2, node 12, m/s/s
        176    1.165077150653E-001                                                     T               2         First time derivative of vind (tangential) at blade 2, node 12, m/s/s
        177   -1.359280190732E+000                                                     T               2         First time derivative of vind (axial) at blade 2, node 13, m/s/s