
Linearized model: Predictions were generated on 11-Oct-2025 at 16:01:35 using OpenFAST, compiled on Oct 10 2025 at 17:31:28 as a 64-bit application using double precision at commit v4.1.2-727-g39496902
 linked with  NWTC Subroutine Library; ElastoDyn; BeamDyn; InflowWind; AeroDyn; ServoDyn

Description from the FAST input file: NREL 5.0 MW Baseline Wind Turbine (Onshore), Linearization with AeroDyn + BD

Simulation information:
   Simulation time:                     1.0005 s
   Rotor Speed:                         1.2815 rad/s
   Azimuth:                             1.2721 rad
   Wind Speed:                          8.0000 m/s
   Number of continuous states:       228
   Number of discrete states:           0
   Number of constraint states:         0
   Number of inputs:                   60
   Number of outputs:                   0
   Jacobians included in this file?    No

Order of continuous states:
   Row/Column Operating Point                                                   Rotating Frame? Derivative Order Description
   ---------- ---------------                                                   --------------- ---------------- -----------
          1   -7.920206507701E+000                                                     T               2         vind (axial) at blade 1, node 1, m/s
          2    0.000000000000E+000                                                     T               2         vind (tangential) at blade 1, node 1, m/s
          3    0.000000000000E+000                                                     T               2         vind (axial) at blade 1, node 2, m/s
          4    0.000000000000E+000                                                     T               2         vind (tangential) at blade 1, node 2, m/s
          5    0.000000000000E+000                                                     T               2         vind (axial) at blade 1, node 3, m/s
          6    0.000000000000E+000                                                     T               2         vind (tangential) at blade 1, node 3, m/s
          7    0.000000000000E+000                                                     T               2         vind (axial) at blade 1, node 4, m/s
          8    0.000000000000E+000                                                     T               2         vind (tangential) at blade 1, node 4, m/s
          9   -2.218724439825E+000                                                     T               2         vind (axial) at blade 1, node 5, m/s
         10    8.021290009404E-001                                                     T               2         vind (tangential) at blade 1, node 5, m/s
         11   -2.072856765247E+000                                                     T               2         vind (axial) at blade 1, node 6, m/s
         12    5.836045959088E-001                                                     T               2         vind (tangential) at blade 1, node 6, m/s
         13   -1.838281858008E+000                                                     T               2         vind (axial) at blade 1, node 7, m/s
         14    4.316444525354E-001                                                     T               2         vind (tangential) at blade 1, node 7, m/s
         15   -1.863254624718E+000                                                     T               2         vind (axial) at blade 1, node 8, m/s
         16    3.617586162783E-001                                                     T               2         vind (tangential) at blade 1, node 8, m/s
         17   -2.256758790551E+000                                                     T               2         vind (axial) at blade 1, node 9, m/s
         18    3.481942140854E-001                                                     T               2         vind (tangential) at blade 1, node 9, m/s
         19   -2.406985081206E+000                                                     T               2         vind (axial) at blade 1, node 10, m/s
         20    3.131804135732E-001                                                     T               2         vind (tangential) at blade 1, node 10, m/s
         21   -2.948484214028E+000                                                     T               2         vind (axial) at blade 1, node 11, m/s
         22    3.021088982545E-001                                                     T               2         vind (tangential) at blade 1, node 11, m/s
         23   -3.343348419459E+000                                                     T               2         vind (axial) at blade 1, node 12, m/s
         24    2.795281355619E-001                                                     T               2         vind (tangential) at blade 1, node 12, m/s
         25   -3.278855014646E+000                                                     T               2         vind (axial) at blade 1, node 13, m/s
         26    2.465045802002E-001                                                     T               2         vind (tangential) at blade 1, node 13, m/s
         27   -3.507027798282E+000                                                     T               2         vind (axial) at blade 1, node 14, m/s
         28    2.263880919929E-001                                                     T               2         vind (tangential) at blade 1, node 14, m/s
         29   -3.730631404250E+000                                                     T               2         vind (axial) at blade 1, node 15, m/s
         30    2.089100876357E-001                                                     T               2         vind (tangential) at blade 1, node 15, m/s
         31   -3.929197607129E+000                                                     T               2         vind (axial) at blade 1, node 16, m/s
         32    1.966324729592E-001                                                     T               2         vind (tangential) at blade 1, node 16, m/s
         33   -4.056994956049E+000                                                     T               2         vind (axial) at blade 1, node 17, m/s
         34    1.869568078320E-001                                                     T               2         vind (tangential) at blade 1, node 17, m/s
         35   -3.797321089480E+000                                                     T               2         vind (axial) at blade 1, node 18, m/s
         36    1.726157048723E-001                                                     T               2         vind (tangential) at blade 1, node 18, m/s
         37   -6.477975034977E+000                                                     T               2         vind (axial) at blade 1, node 19, m/s
         38    0.000000000000E+000                                                     T               2         vind (tangential) at blade 1, node 19, m/s
         39   -7.718199210440E+000                                                     T               2         vind (axial) at blade 2, node 1, m/s
         40    0.000000000000E+000                                                     T               2         vind (tangential) at blade 2, node 1, m/s
         41    0.000000000000E+000                                                     T               2         vind (axial) at blade 2, node 2, m/s
         42    0.000000000000E+000                                                     T               2         vind (tangential) at blade 2, node 2, m/s
         43    0.000000000000E+000                                                     T               2         vind (axial) at blade 2, node 3, m/s
         44    0.000000000000E+000                                                     T               2         vind (tangential) at blade 2, node 3, m/s
         45    0.000000000000E+000                                                     T               2         vind (axial) at blade 2, node 4, m/s
         46    0.000000000000E+000                                                     T               2         vind (tangential) at blade 2, node 4, m/s
         47   -2.194856632221E+000                                                     T               2         vind (axial) at blade 2, node 5, m/s
         48    7.695266032337E-001                                                     T               2         vind (tangential) at blade 2, node 5, m/s
         49   -2.048900567825E+000                                                     T               2         vind (axial) at blade 2, node 6, m/s
         50    5.662574929457E-001                                                     T               2         vind (tangential) at blade 2, node 6, m/s
         51   -1.822462628421E+000                                                     T               2         vind (axial) at blade 2, node 7, m/s
         52    4.221721880212E-001                                                     T               2         vind (tangential) at blade 2, node 7, m/s
         53   -1.857956138770E+000                                                     T               2         vind (axial) at blade 2, node 8, m/s
         54    3.568424836705E-001                                                     T               2         vind (tangential) at blade 2, node 8, m/s
         55   -2.266001485451E+000                                                     T               2         vind (axial) at blade 2, node 9, m/s
         56    3.463015860069E-001                                                     T               2         vind (tangential) at blade 2, node 9, m/s
         57   -2.425180989616E+000                                                     T               2         vind (axial) at blade 2, node 10, m/s
         58    3.130960196867E-001                                                     T               2         vind (tangential) at blade 2, node 10, m/s
         59   -2.981887507874E+000                                                     T               2         vind (axial) at blade 2, node 11, m/s
         60    3.032479635424E-001                                                     T               2         vind (tangential) at blade 2, node 11, m/s
         61   -3.386885404282E+000                                                     T               2         vind (axial) at blade 2, node 12, m/s
         62    2.817579069154E-001                                                     T               2         vind (tangential) at blade 2, node 12, m/s
         63   -3.328818100918E+000                                                     T               2         vind (axial) at blade 2, node 13, m/s
         64    2.495022598021E-001                                                     T               2         vind (tangential) at blade 2, node 13, m/s
         65   -3.564313269507E+000                                                     T               2         vind (axial) at blade 2, node 14, m/s
         66    2.302129710715E-001                                                     T               2         vind (tangential) at blade 2, node 14, m/s
         67   -3.793777071883E+000                                                     T               2         vind (axial) at blade 2, node 15, m/s
         68    2.135387256787E-001                                                     T               2         vind (tangential) at blade 2, node 15, m/s
         69   -3.996117881045E+000                                                     T               2         vind (axial) at blade 2, node 16, m/s
         70    2.020221640113E-001                                                     T               2         vind (tangential) at blade 2, node 16, m/s
         71   -4.160177690972E+000                                                     T               2         vind (axial) at blade 2, node 17, m/s
         72    1.923178619655E-001                                                     T               2         vind (tangential) at blade 2, node 17, m/s
         73   -3.910933153963E+000                                                     T               2         vind (axial) at blade 2, node 18, m/s
         74    1.797296907531E-001                                                     T               2         vind (tangential) at blade 2, node 18, m/s
         75   -6.569740899845E+000                                                     T               2         vind (axial) at blade 2, node 19, m/s
         76    0.000000000000E+000                                                     T               2         vind (tangential) at blade 2, node 19, m/s
         77   -7.851805908242E+000                                                     T               2         vind (axial) at blade 3, node 1, m/s
         78    0.000000000000E+000                                                     T               2         vind (tangential) at blade 3, node 1, m/s
         79    0.000000000000E+000                                                     T               2         vind (axial) at blade 3, node 2, m/s
         80    0.000000000000E+000                                                     T               2         vind (tangential) at blade 3, node 2, m/s
         81    0.000000000000E+000                                                     T               2         vind (axial) at blade 3, node 3, m/s
         82    0.000000000000E+000                                                     T               2         vind (tangential) at blade 3, node 3, m/s
         83    0.000000000000E+000                                                     T               2         vind (axial) at blade 3, node 4, m/s
         84    0.000000000000E+000                                                     T               2         vind (tangential) at blade 3, node 4, m/s
         85   -2.239328398545E+000                                                     T               2         vind (axial) at blade 3, node 5, m/s
         86    8.533969599594E-001                                                     T               2         vind (tangential) at blade 3, node 5, m/s
         87   -2.115834468498E+000                                                     T               2         vind (axial) at blade 3, node 6, m/s
         88    6.163005420188E-001                                                     T               2         vind (tangential) at blade 3, node 6, m/s
         89   -1.878321387365E+000                                                     T               2         vind (axial) at blade 3, node 7, m/s
         90    4.522379082776E-001                                                     T               2         vind (tangential) at blade 3, node 7, m/s
         91   -1.895036969520E+000                                                     T               2         vind (axial) at blade 3, node 8, m/s
         92    3.753382108513E-001                                                     T               2         vind (tangential) at blade 3, node 8, m/s
         93   -2.276211539081E+000                                                     T               2         vind (axial) at blade 3, node 9, m/s
         94    3.573123342130E-001                                                     T               2         vind (tangential) at blade 3, node 9, m/s
         95   -2.429488673278E+000                                                     T               2         vind (axial) at blade 3, node 10, m/s
         96    3.202975849067E-001                                                     T               2         vind (tangential) at blade 3, node 10, m/s
         97   -2.975011144251E+000                                                     T               2         vind (axial) at blade 3, node 11, m/s
         98    3.076022959720E-001                                                     T               2         vind (tangential) at blade 3, node 11, m/s
         99   -3.382087364896E+000                                                     T               2         vind (axial) at blade 3, node 12, m/s
        100    2.845360514258E-001                                                     T               2         vind (tangential) at blade 3, node 12, m/s
        101   -3.334785524396E+000                                                     T               2         vind (axial) at blade 3, node 13, m/s
        102    2.511834094265E-001                                                     T               2         vind (tangential) at blade 3, node 13, m/s
        103   -3.581994175415E+000                                                     T               2         vind (axial) at blade 3, node 14, m/s
        104    2.313754676541E-001                                                     T               2         vind (tangential) at blade 3, node 14, m/s
        105   -3.823133023611E+000                                                     T               2         vind (axial) at blade 3, node 15, m/s
        106    2.144579506870E-001                                                     T               2         vind (tangential) at blade 3, node 15, m/s
        107   -4.033460512931E+000                                                     T               2         vind (axial) at blade 3, node 16, m/s
        108    2.028444677163E-001                                                     T               2         vind (tangential) at blade 3, node 16, m/s
        109   -4.209018486019E+000                                                     T               2         vind (axial) at blade 3, node 17, m/s
        110    1.926814361857E-001                                                     T               2         vind (tangential) at blade 3, node 17, m/s
        111   -3.948131185819E+000                                                     T               2         vind (axial) at blade 3, node 18, m/s
        112    1.796610827429E-001                                                     T               2         vind (tangential) at blade 3, node 18, m/s
        113   -6.511077479248E+000                                                     T               2         vind (axial) at blade 3, node 19, m/s
        114    0.000000000000E+000                                                     T               2         vind (tangential) at blade 3, node 19, m/s
        115   -3.177018683124E+000                                                     T               2         First time derivative of vind (axial) at blade 1, node 1, m/s/s
        116    0.000000000000E+000                                                     T               2         First time derivative of vind (tangential) at blade 1, node 1, m/s/s
        117    0.000000000000E+000                                                     T               2         First time derivative of vind (axial) at blade 1, node 2, m/s/s
        118    0.000000000000E+000                                                     T               2         First time derivative of vind (tangential) at blade 1, node 2, m/s/s
        119    0.000000000000E+000                                                     T               2         First time derivative of vind (axial) at blade 1, node 3, m/s/s
        120    0.000000000000E+000                                                     T               2         First time derivative of vind (tangential) at blade 1, node 3, m/s/s
        121    0.000000000000E+000                                                     T               2         First time derivative of vind (axial) at blade 1, node 4, m/s/s
        122    0.000000000000E+000                                                     T               2         First time derivative of vind (tangential) at blade 1, node 4, m/s/s
        123   -8.917484277590E-001                                                     T               2         First time derivative of vind (axial) at blade 1, node 5, m/s/s
        124    3.240234506370E-001                                                     T               2         First time derivative of vind (tangential) at blade 1, node 5, m/s/s
        125   -8.352561212751E-001                                                     T               2         First time derivative of vind (axial) at blade 1, node 6, m/s/s
        126    2.362768225787E-001                                                     T               2         First time derivative of vind (tangential) at blade 1, node 6, m/s/s
        127   -7.428181631387E-001                                                     T               2         First time derivative of vind (axial) at blade 1, node 7, m/s/s
        128    1.753043050575E-001                                                     T               2         First time derivative of vind (tangential) at blade 1, node 7, m/s/s
        129   -7.545955550715E-001                                                     T               2         First time derivative of vind (axial) at blade 1, node 8, m/s/s
        130    1.473886940187E-001                                                     T               2         First time derivative of vind (tangential) at blade 1, node 8, m/s/s
        131   -9.140538556034E-001                                                     T               2         First time derivative of vind (axial) at blade 1, node 9, m/s/s
        132    1.421784850021E-001                                                     T               2         First time derivative of vind (tangential) at blade 1, node 9, m/s/s
        133   -9.783204613503E-001                                                     T               2         First time derivative of vind (axial) at blade 1, node 10, m/s/s
        134    1.286178647088E-001                                                     T               2         First time derivative of vind (tangential) at blade 1, node 10, m/s/s
        135   -1.199311668048E+000                                                     T               2         First time derivative of vind (axial) at blade 1, node 11, m/s/s
        136    1.248089874220E-001                                                     T               2         First time derivative of vind (tangential) at blade 1, node 11, m/s/s
        137   -1.364854197213E+000                                                     T               2         First time derivative of vind (axial) at blade 1, node 12, m/s/s
        138    1.166658497548E-001                                                     T               2         First time derivative of vind (tangential) at blade 1, node 12, m/s/s
        139   -1.344761886988E+000                                                     T               2         First time derivative of vind (axial) at blade 1, node 13, m/s/s
        140    1.043378048685E-001                                                     T               2         First time derivative of vind (tangential) at blade 1, node 13, m/s/s
        141   -1.447249866448E+000                                                     T               2         First time derivative of vind (axial) at blade 1, node 14, m/s/s
        142    9.761017121737E-002                                                     T               2         First time derivative of vind (tangential) at blade 1, node 14, m/s/s
        143   -1.549753981087E+000                                                     T               2         First time derivative of vind (axial) at blade 1, node 15, m/s/s
        144    9.219144602652E-002                                                     T               2         First time derivative of vind (tangential) at blade 1, node 15, m/s/s
        145   -1.643067223034E+000                                                     T               2         First time derivative of vind (axial) at blade 1, node 16, m/s/s
        146    8.885681895913E-002                                                     T               2         First time derivative of vind (tangential) at blade 1, node 16, m/s/s
        147   -1.709306843522E+000                                                     T               2         First time derivative of vind (axial) at blade 1, node 17, m/s/s
        148    8.666537137596E-002                                                     T               2         First time derivative of vind (tangential) at blade 1, node 17, m/s/s
        149   -1.638004773004E+000                                                     T               2         First time derivative of vind (axial) at blade 1, node 18, m/s/s
        150    8.317448435912E-002                                                     T               2         First time derivative of vind (tangential) at blade 1, node 18, m/s/s
        151   -2.922230304726E+000                                                     T               2         First time derivative of vind (axial) at blade 1, node 19, m/s/s
        152    0.000000000000E+000                                                     T               2         First time derivative of vind (tangential) at blade 1, node 19, m/s/s
        153   -3.109550290674E+000                                                     T               2         First time derivative of vind (axial) at blade 2, node 1, m/s/s
        154    0.000000000000E+000                                                     T               2         First time derivative of vind (tangential) at blade 2, node 1, m/s/s
        155    0.000000000000E+000                                                     T               2         First time derivative of vind (axial) at blade 2, node 2, m/s/s
        156    0.000000000000E+000                                                     T               2         First time derivative of vind (tangential) at blade 2, node 2, m/s/s
        157    0.000000000000E+000                                                     T               2         First time derivative of vind (axial) at blade 2, node 3, m/s/s
        158    0.000000000000E+000                                                     T               2         First time derivative of vind (tangential) at blade 2, node 3, m/s/s
        159    0.000000000000E+000                                                     T               2         First time derivative of vind (axial) at blade 2, node 4, m/s/s
        160    0.000000000000E+000                                                     T               2         First time derivative of vind (tangential) at blade 2, node 4, m/s/s
        161   -8.861999932189E-001                                                     T               2         First time derivative of vind (axial) at blade 2, node 5, m/s/s
        162    3.120122244909E-001                                                     T               2         First time derivative of vind (tangential) at blade 2, node 5, m/s/s
        163   -8.276319371327E-001                                                     T               2         First time derivative of vind (axial) at blade 2, node 6, m/s/s
        164    2.296176745344E-001                                                     T               2         First time derivative of vind (tangential) at blade 2, node 6, m/s/s
        165   -7.368738063480E-001                                                     T               2         First time derivative of vind (axial) at blade 2, node 7, m/s/s
        166    1.713530504905E-001                                                     T               2         First time derivative of vind (tangential) at blade 2, node 7, m/s/s
        167   -7.516782468152E-001                                                     T               2         First time derivative of vind (axial) at blade 2, node 8, m/s/s
        168    1.449972195407E-001                                                     T               2         First time derivative of vind (tangential) at blade 2, node 8, m/s/s
        169   -9.163412519325E-001                                                     T               2         First time derivative of vind (axial) at blade 2, node 9, m/s/s
        170    1.408450912452E-001                                                     T               2         First time derivative of vind (tangential) at blade 2, node 9, m/s/s
        171   -9.829714358504E-001                                                     T               2         First time derivative of vind (axial) at blade 2, node 10, m/s/s
        172    1.278351270433E-001                                                     T               2         First time derivative of vind (tangential) at blade 2, node 10, m/s/s
        173   -1.209380609147E+000                                                     T               2         First time derivative of vind (axial) at blade 2, node 11, m/s/s
        174    1.243817024228E-001                                                     T               2         First time derivative of vind (tangential) at blade 2, node 11, m/s/s
        175   -1.377738741165E+000                                                     T               2         First time derivative of vind (axial) at blade 2, node 12, m/s/s
        176    1.165077169590E-001                                                     T               2         First time derivative of vind (tangential) at blade 2, node 12, m/s/s
        177   -1.359280167964E+000                                                     T               2         First time derivative of vind (axial) at blade 2, node 13, m/s/s