
Linearized model: Predictions were generated on 11-Mar-2026 at 17:04:04 using OpenFAST, compiled on Mar 11 2026 at 16:48:05 as a 64-bit application using double precision at commit -128-NOTFOUND
 linked with  NWTC Subroutine Library; ElastoDyn; InflowWind; AeroDyn; ServoDyn

Description from the FAST input file: NREL 5.0 MW Baseline Wind Turbine (Onshore), Linearization with AeroDyn + ED

Simulation information:
   Simulation time:                     1.0000 s
   Rotor Speed:                         1.2798 rad/s
   Azimuth:                             1.2699 rad
   Wind Speed:                          8.0000 m/s
   Number of continuous states:        32
   Number of discrete states:           0
   Number of constraint states:         0
   Number of inputs:                    9
   Number of outputs:                  33
   Jacobians included in this file?    No

Order of continuous states:
   Row/Column Operating Point                                                   Rotating Frame? Derivative Order Description
   ---------- ---------------                                                   --------------- ---------------- -----------
          1    2.059381981223E-001                                                     F               2         1st tower fore-aft bending mode DOF (internal DOF index = DOF_TFA1), m
          2   -5.122172215575E-003                                                     F               2         1st tower side-to-side bending mode DOF (internal DOF index = DOF_TSS1), m
          3   -6.262606659231E-005                                                     F               2         2nd tower fore-aft bending mode DOF (internal DOF index = DOF_TFA2), m
          4    1.723201816892E-005                                                     F               2         2nd tower side-to-side bending mode DOF (internal DOF index = DOF_TSS2), m
          5    5.058594026774E-005                                                     F               2         Nacelle yaw DOF (internal DOF index = DOF_Yaw), rad
          6    5.982239245414E+000                                                     F               2         Variable speed generator DOF (internal DOF index = DOF_GeAz), rad
          7    2.928779495896E-005                                                     F               2         Drivetrain rotational-flexibility DOF (internal DOF index = DOF_DrTr), rad
          8    3.813673678975E+000                                                     T               2         1st flapwise bending-mode DOF of blade 1 (internal DOF index = DOF_BF(1,1)), m
          9    4.020930135145E+000                                                     T               2         1st flapwise bending-mode DOF of blade 2 (internal DOF index = DOF_BF(2,1)), m
         10    3.636899357123E+000                                                     T               2         1st flapwise bending-mode DOF of blade 3 (internal DOF index = DOF_BF(3,1)), m
         11   -1.673734297007E-001                                                     T               2         1st edgewise bending-mode DOF of blade 1 (internal DOF index = DOF_BE(1,1)), m
         12    5.888410031433E-001                                                     T               2         1st edgewise bending-mode DOF of blade 2 (internal DOF index = DOF_BE(2,1)), m
         13    1.922993999605E-001                                                     T               2         1st edgewise bending-mode DOF of blade 3 (internal DOF index = DOF_BE(3,1)), m
         14    5.115279614750E-002                                                     T               2         2nd flapwise bending-mode DOF of blade 1 (internal DOF index = DOF_BF(1,2)), m
         15    1.776107435850E-001                                                     T               2         2nd flapwise bending-mode DOF of blade 2 (internal DOF index = DOF_BF(2,2)), m
         16    1.374849871067E-001                                                     T               2         2nd flapwise bending-mode DOF of blade 3 (internal DOF index = DOF_BF(3,2)), m
         17    4.685130409025E-001                                                     F               2         First time derivative of 1st tower fore-aft bending mode DOF (internal DOF index = DOF_TFA1), m/s
         18    1.807374922539E-002                                                     F               2         First time derivative of 1st tower side-to-side bending mode DOF (internal DOF index = DOF_TSS1), m/s
         19    1.245032829711E-003                                                     F               2         First time derivative of 2nd tower fore-aft bending mode DOF (internal DOF index = DOF_TFA2), m/s
         20    1.035127470261E-004                                                     F               2         First time derivative of 2nd tower side-to-side bending mode DOF (internal DOF index = DOF_TSS2), m/s
         21   -1.845939006570E-004                                                     F               2         First time derivative of Nacelle yaw DOF (internal DOF index = DOF_Yaw), rad/s
         22    1.277419110841E+000                                                     F               2         First time derivative of Variable speed generator DOF (internal DOF index = DOF_GeAz), rad/s
         23    2.387446118379E-003                                                     F               2         First time derivative of Drivetrain rotational-flexibility DOF (internal DOF index = DOF_DrTr), rad/s
         24   -3.523408431865E-001                                                     T               2         First time derivative of 1st flapwise bending-mode DOF of blade 1 (internal DOF index = DOF_BF(1,1)), m/s
         25   -1.206555193234E+000                                                     T               2         First time derivative of 1st flapwise bending-mode DOF of blade 2 (internal DOF index = DOF_BF(2,1)), m/s
         26   -1.599461787695E+000                                                     T               2         First time derivative of 1st flapwise bending-mode DOF of blade 3 (internal DOF index = DOF_BF(3,1)), m/s
         27    1.622553554108E-001                                                     T               2         First time derivative of 1st edgewise bending-mode DOF of blade 1 (internal DOF index = DOF_BE(1,1)), m/s
         28   -1.245561501134E+000                                                     T               2         First time derivative of 1st edgewise bending-mode DOF of blade 2 (internal DOF index = DOF_BE(2,1)), m/s
         29    3.434689826117E-001                                                     T               2         First time derivative of 1st edgewise bending-mode DOF of blade 3 (internal DOF index = DOF_BE(3,1)), m/s
         30   -1.503769500972E-001                                                     T               2         First time derivative of 2nd flapwise bending-mode DOF of blade 1 (internal DOF index = DOF_BF(1,2)), m/s
         31   -4.827619584756E-001                                                     T               2         First time derivative of 2nd flapwise bending-mode DOF of blade 2 (internal DOF index = DOF_BF(2,2)), m/s
         32   -2.066218923376E-001                                                     T               2         First time derivative of 2nd flapwise bending-mode DOF of blade 3 (internal DOF index = DOF_BF(3,2)), m/s

Order of continuous state derivatives:
   Row/Column Operating Point                                                   Rotating Frame? Derivative Order Description
   ---------- ---------------                                                   --------------- ---------------- -----------
          1    4.685130409025E-001                                                     F               2         First time derivative of 1st tower fore-aft bending mode DOF (internal DOF index = DOF_TFA1), m/s
          2    1.807374922539E-002                                                     F               2         First time derivative of 1st tower side-to-side bending mode DOF (internal DOF index = DOF_TSS1), m/s
          3    1.245032829711E-003                                                     F               2         First time derivative of 2nd tower fore-aft bending mode DOF (internal DOF index = DOF_TFA2), m/s
          4    1.035127470261E-004                                                     F               2         First time derivative of 2nd tower side-to-side bending mode DOF (internal DOF index = DOF_TSS2), m/s
          5   -1.845939006570E-004                                                     F               2         First time derivative of Nacelle yaw DOF (internal DOF index = DOF_Yaw), rad/s
          6    1.277419110841E+000                                                     F               2         First time derivative of Variable speed generator DOF (internal DOF index = DOF_GeAz), rad/s
          7    2.387446118379E-003                                                     F               2         First time derivative of Drivetrain rotational-flexibility DOF (internal DOF index = DOF_DrTr), rad/s
          8   -3.523408431865E-001                                                     T               2         First time derivative of 1st flapwise bending-mode DOF of blade 1 (internal DOF index = DOF_BF(1,1)), m/s
          9   -1.206555193234E+000                                                     T               2         First time derivative of 1st flapwise bending-mode DOF of blade 2 (internal DOF index = DOF_BF(2,1)), m/s
         10   -1.599461787695E+000                                                     T               2         First time derivative of 1st flapwise bending-mode DOF of blade 3 (internal DOF index = DOF_BF(3,1)), m/s
         11    1.622553554108E-001                                                     T               2         First time derivative of 1st edgewise bending-mode DOF of blade 1 (internal DOF index = DOF_BE(1,1)), m/s
         12   -1.245561501134E+000                                                     T               2         First time derivative of 1st edgewise bending-mode DOF of blade 2 (internal DOF index = DOF_BE(2,1)), m/s
         13    3.434689826117E-001                                                     T               2         First time derivative of 1st edgewise bending-mode DOF of blade 3 (internal DOF index = DOF_BE(3,1)), m/s
         14   -1.503769500972E-001                                                     T               2         First time derivative of 2nd flapwise bending-mode DOF of blade 1 (internal DOF index = DOF_BF(1,2)), m/s
         15   -4.827619584756E-001                                                     T               2         First time derivative of 2nd flapwise bending-mode DOF of blade 2 (internal DOF index = DOF_BF(2,2)), m/s
         16   -2.066218923376E-001                                                     T               2         First time derivative of 2nd flapwise bending-mode DOF of blade 3 (internal DOF index = DOF_BF(3,2)), m/s
         17    2.815054003430E-002                                                     F               2         First time derivative of First time derivative of 1st tower fore-aft bending mode DOF (internal DOF index = DOF_TFA1), m/s/s
         18    2.049742748568E-001                                                     F               2         First time derivative of First time derivative of 1st tower side-to-side bending mode DOF (internal DOF index = DOF_TSS1), m/s/s
         19   -1.618468087084E-002                                                     F               2         First time derivative of First time derivative of 2nd tower fore-aft bending mode DOF (internal DOF index = DOF_TFA2), m/s/s
         20    2.448474285992E-003                                                     F               2         First time derivative of First time derivative of 2nd tower side-to-side bending mode DOF (internal DOF index = DOF_TSS2), m/s/s
         21   -5.436937780891E-003                                                     F               2         First time derivative of First time derivative of Nacelle yaw DOF (internal DOF index = DOF_Yaw), rad/s/s
         22    7.934669497142E-003                                                     F               2         First time derivative of First time derivative of Variable speed generator DOF (internal DOF index = DOF_GeAz), rad/s/s
         23    3.200826836135E-002                                                     F               2         First time derivative of First time derivative of Drivetrain rotational-flexibility DOF (internal DOF index = DOF_DrTr), rad/s/s
         24    1.206868800961E-001                                                     T               2         First time derivative of First time derivative of 1st flapwise bending-mode DOF of blade 1 (internal DOF index = DOF_BF(1,1)), m/s/s
         25    7.713195009567E+000                                                     T               2         First time derivative of First time derivative of 1st flapwise bending-mode DOF of blade 2 (internal DOF index = DOF_BF(2,1)), m/s/s
         26   -3.077372062486E+000                                                     T               2         First time derivative of First time derivative of 1st flapwise bending-mode DOF of blade 3 (internal DOF index = DOF_BF(3,1)), m/s/s
         27    6.909711686644E-001                                                     T               2         First time derivative of First time derivative of 1st edgewise bending-mode DOF of blade 1 (internal DOF index = DOF_BE(1,1)), m/s/s
         28   -1.217730821527E+001                                                     T               2         First time derivative of First time derivative of 1st edgewise bending-mode DOF of blade 2 (internal DOF index = DOF_BE(2,1)), m/s/s
         29    1.755206579393E+001                                                     T               2         First time derivative of First time derivative of 1st edgewise bending-mode DOF of blade 3 (internal DOF index = DOF_BE(3,1)), m/s/s
         30   -3.897376494899E+000                                                     T               2         First time derivative of First time derivative of 2nd flapwise bending-mode DOF of blade 1 (internal DOF index = DOF_BF(1,2)), m/s/s
         31   -3.270910635256E+000                                                     T               2         First time derivative of First time derivative of 2nd flapwise bending-mode DOF of blade 2 (internal DOF index = DOF_BF(2,2)), m/s/s
         32   -1.583627344849E+000                                                     T               2         First time derivative of First time derivative of 2nd flapwise bending-mode DOF of blade 3 (internal DOF index = DOF_BF(3,2)), m/s/s

Order of inputs:
     Column   Operating Point                                                   Rotating Frame? Derivative Order Description
   ---------- ---------------                                                   --------------- ---------------- -----------
          1    0.000000000000E+000                                                     T               0         Blade 1 pitch command, rad
          2    0.000000000000E+000                                                     T               0         Blade 2 pitch command, rad
          3    0.000000000000E+000                                                     T               0         Blade 3 pitch command, rad
          4   -0.000000000000E+000                                                     T               0         Blade 1 pitch moment, Nm
          5   -0.000000000000E+000                                                     T               0         Blade 2 pitch moment, Nm
          6   -0.000000000000E+000                                                     T               0         Blade 3 pitch moment, Nm
          7   -4.530586366315E+005                                                     F               0         Yaw moment, Nm
          8    0.000000000000E+000                                                     F               0         Generator torque, Nm
          9    0.000000000000E+000                                                     F               0         Extended input: collective blade-pitch command, rad

Order of outputs:
        Row   Operating Point                                                   Rotating Frame? Derivative Order Description
   ---------- ---------------                                                   --------------- ---------------- -----------
          1    3.803240788789E+000                                                     T               0         OoPDefl1, (m)
          2   -6.456131546715E-001                                                     T               0         IPDefl1, (m)
          3    0.000000000000E+000                                                     T               0         TwstDefl1, (deg)
          4    0.000000000000E+000                                                     T               0         BldPitch1, (deg)
          5    7.275873886679E+001                                                     F               0         Azimuth, (deg)
          6    1.222125238449E+001                                                     F               0         RotSpeed, (rpm)
          7    1.183250033482E+003                                                     F               0         GenSpeed, (rpm)
          8    2.058755720557E-001                                                     F               0         TTDspFA, (m)
          9    5.104940197407E-003                                                     F               0         TTDspSS, (m)
         10    0.000000000000E+000                                                     F               0         TTDspTwst, (deg)
         11    2.138347742313E+002                                                     T               0         Spn2MLxb1, (kN-m)
         12    1.840694559385E+003                                                     T               0         Spn2MLyb1, (kN-m)
         13    1.773918504935E+002                                                     T               0         RootFxb1, (kN)
         14   -1.543649002823E+002                                                     T               0         RootFyb1, (kN)
         15    5.666424603735E+002                                                     T               0         RootFzb1, (kN)
         16    3.069181336152E+003                                                     T               0         RootMxb1, (kN-m)
         17    6.438645525389E+003                                                     T               0         RootMyb1, (kN-m)
         18   -5.501493759463E+001                                                     T               0         RootMzb1, (kN-m)
         19    4.024915218054E+001                                                     F               0         RotTorq, (kN-m)
         20   -7.518326413591E+002                                                     F               0         LSSGagMya, (kN-m)
         21    3.023482546244E+003                                                     F               0         LSSGagMza, (kN-m)
         22    4.264926823281E+002                                                     F               0         YawBrFxp, (kN)
         23    2.345880832977E+000                                                     F               0         YawBrFyp, (kN)
         24   -3.436969645861E+003                                                     F               0         YawBrFzp, (kN)
         25    7.685426870003E+001                                                     F               0         YawBrMxp, (kN-m)
         26   -1.017988587224E+003                                                     F               0         YawBrMyp, (kN-m)
         27    4.530586366315E+002                                                     F               0         YawBrMzp, (kN-m)
         28    3.856150320782E+002                                                     F               0         TwrBsFxt, (kN)
         29    1.467367767362E+001                                                     F               0         TwrBsFyt, (kN)
         30   -6.845737148801E+003                                                     F               0         TwrBsFzt, (kN)
         31   -1.008306669636E+003                                                     F               0         TwrBsMxt, (kN-m)
         32    3.461066276657E+004                                                     F               0         TwrBsMyt, (kN-m)
         33    4.529946454136E+002                                                     F               0         TwrBsMzt, (kN-m)


Linearized state matrices:

A: 32 x 32
    0.000000000000E+000  0.000000000000E+000  0.000000000000E+000  0.000000000000E+000  0.000000000000E+000  0.000000000000E+000  0.000000000000E+000  0.000000000000E+000  0.000000000000E+000  0.000000000000E+000  0.000000000000E+000  0.000000000000E+000  0.000000000000E+000  0.000000000000E+000  0.000000000000E+000  0.000000000000E+000  1.000000000000E+000  0.000000000000E+000  0.000000000000E+000  0.000000000000E+000  0.000000000000E+000  0.000000000000E+000  0.000000000000E+000  0.000000000000E+000  0.000000000000E+000  0.000000000000E+000  0.000000000000E+000  0.000000000000E+000  0.000000000000E+000  0.000000000000E+000  0.000000000000E+000  0.000000000000E+000
    0.000000000000E+000  0.000000000000E+000  0.000000000000E+000  0.000000000000E+000  0.000000000000E+000  0.000000000000E+000  0.000000000000E+000  0.000000000000E+000  0.000000000000E+000  0.000000000000E+000  0.000000000000E+000  0.000000000000E+000  0.000000000000E+000  0.000000000000E+000  0.000000000000E+000  0.000000000000E+000  0.000000000000E+000  1.000000000000E+000  0.000000000000E+000  0.000000000000E+000  0.000000000000E+000  0.000000000000E+000  0.000000000000E+000  0.000000000000E+000  0.000000000000E+000  0.000000000000E+000  0.000000000000E+000  0.000000000000E+000  0.000000000000E+000  0.000000000000E+000  0.000000000000E+000  0.000000000000E+000
    0.000000000000E+000  0.000000000000E+000  0.000000000000E+000  0.000000000000E+000  0.000000000000E+000  0.000000000000E+000  0.000000000000E+000  0.000000000000E+000  0.000000000000E+000  0.000000000000E+000  0.000000000000E+000  0.000000000000E+000  0.000000000000E+000  0.000000000000E+000  0.000000000000E+000  0.000000000000E+000  0.000000000000E+000  0.000000000000E+000  1.000000000000E+000  0.000000000000E+000  0.000000000000E+000  0.000000000000E+000  0.000000000000E+000  0.000000000000E+000  0.000000000000E+000  0.000000000000E+000  0.000000000000E+000  0.000000000000E+000  0.000000000000E+000  0.000000000000E+000  0.000000000000E+000  0.000000000000E+000
    0.000000000000E+000  0.000000000000E+000  0.000000000000E+000  0.000000000000E+000  0.000000000000E+000  0.000000000000E+000  0.000000000000E+000  0.000000000000E+000  0.000000000000E+000  0.000000000000E+000  0.000000000000E+000  0.000000000000E+000  0.000000000000E+000  0.000000000000E+000  0.000000000000E+000  0.000000000000E+000  0.000000000000E+000  0.000000000000E+000  0.000000000000E+000  1.000000000000E+000  0.000000000000E+000  0.000000000000E+000  0.000000000000E+000  0.000000000000E+000  0.000000000000E+000  0.000000000000E+000  0.000000000000E+000  0.000000000000E+000  0.000000000000E+000  0.000000000000E+000  0.000000000000E+000  0.000000000000E+000
    0.000000000000E+000  0.000000000000E+000  0.000000000000E+000  0.000000000000E+000  0.000000000000E+000  0.000000000000E+000  0.000000000000E+000  0.000000000000E+000  0.000000000000E+000  0.000000000000E+000  0.000000000000E+000  0.000000000000E+000  0.000000000000E+000  0.000000000000E+000  0.000000000000E+000  0.000000000000E+000  0.000000000000E+000  0.000000000000E+000  0.000000000000E+000  0.000000000000E+000  1.000000000000E+000  0.000000000000E+000  0.000000000000E+000  0.000000000000E+000  0.000000000000E+000  0.000000000000E+000  0.000000000000E+000  0.000000000000E+000  0.000000000000E+000  0.000000000000E+000  0.000000000000E+000  0.000000000000E+000
    0.000000000000E+000  0.000000000000E+000  0.000000000000E+000  0.000000000000E+000  0.000000000000E+000  0.000000000000E+000  0.000000000000E+000  0.000000000000E+000  0.000000000000E+000  0.000000000000E+000  0.000000000000E+000  0.000000000000E+000  0.000000000000E+000  0.000000000000E+000  0.000000000000E+000  0.000000000000E+000  0.000000000000E+000  0.000000000000E+000  0.000000000000E+000  0.000000000000E+000  0.000000000000E+000  1.000000000000E+000  0.000000000000E+000  0.000000000000E+000  0.000000000000E+000  0.000000000000E+000  0.000000000000E+000  0.000000000000E+000  0.000000000000E+000  0.000000000000E+000  0.000000000000E+000  0.000000000000E+000
    0.000000000000E+000  0.000000000000E+000  0.000000000000E+000  0.000000000000E+000  0.000000000000E+000  0.000000000000E+000  0.000000000000E+000  0.000000000000E+000  0.000000000000E+000  0.000000000000E+000  0.000000000000E+000  0.000000000000E+000  0.000000000000E+000  0.000000000000E+000  0.000000000000E+000  0.000000000000E+000  0.000000000000E+000  0.000000000000E+000  0.000000000000E+000  0.000000000000E+000  0.000000000000E+000  0.000000000000E+000  1.000000000000E+000  0.000000000000E+000  0.000000000000E+000  0.000000000000E+000  0.000000000000E+000  0.000000000000E+000  0.000000000000E+000  0.000000000000E+000  0.000000000000E+000  0.000000000000E+000
    0.000000000000E+000  0.000000000000E+000  0.000000000000E+000  0.000000000000E+000  0.000000000000E+000  0.000000000000E+000  0.000000000000E+000  0.000000000000E+000  0.000000000000E+000  0.000000000000E+000  0.000000000000E+000  0.000000000000E+000  0.000000000000E+000  0.000000000000E+000  0.000000000000E+000  0.000000000000E+000  0.000000000000E+000  0.000000000000E+000  0.000000000000E+000  0.000000000000E+000  0.000000000000E+000  0.000000000000E+000  0.000000000000E+000  1.000000000000E+000  0.000000000000E+000  0.000000000000E+000  0.000000000000E+000  0.000000000000E+000  0.000000000000E+000  0.000000000000E+000  0.000000000000E+000  0.000000000000E+000
    0.000000000000E+000  0.000000000000E+000  0.000000000000E+000  0.000000000000E+000  0.000000000000E+000  0.000000000000E+000  0.000000000000E+000  0.000000000000E+000  0.000000000000E+000  0.000000000000E+000  0.000000000000E+000  0.000000000000E+000  0.000000000000E+000  0.000000000000E+000  0.000000000000E+000  0.000000000000E+000  0.000000000000E+000  0.000000000000E+000  0.000000000000E+000  0.000000000000E+000  0.000000000000E+000  0.000000000000E+000  0.000000000000E+000  0.000000000000E+000  1.000000000000E+000  0.000000000000E+000  0.000000000000E+000  0.000000000000E+000  0.000000000000E+000  0.000000000000E+000  0.000000000000E+000  0.000000000000E+000
    0.000000000000E+000  0.000000000000E+000  0.000000000000E+000  0.000000000000E+000  0.000000000000E+000  0.000000000000E+000  0.000000000000E+000  0.000000000000E+000  0.000000000000E+000  0.000000000000E+000  0.000000000000E+000  0.000000000000E+000  0.000000000000E+000  0.000000000000E+000  0.000000000000E+000  0.000000000000E+000  0.000000000000E+000  0.000000000000E+000  0.000000000000E+000  0.000000000000E+000  0.000000000000E+000  0.000000000000E+000  0.000000000000E+000  0.000000000000E+000  0.000000000000E+000  1.000000000000E+000  0.000000000000E+000  0.000000000000E+000  0.000000000000E+000  0.000000000000E+000  0.000000000000E+000  0.000000000000E+000
    0.000000000000E+000  0.000000000000E+000  0.000000000000E+000  0.000000000000E+000  0.000000000000E+000  0.000000000000E+000  0.000000000000E+000  0.000000000000E+000  0.000000000000E+000  0.000000000000E+000  0.000000000000E+000  0.000000000000E+000  0.000000000000E+000  0.000000000000E+000  0.000000000000E+000  0.000000000000E+000  0.000000000000E+000  0.000000000000E+000  0.000000000000E+000  0.000000000000E+000  0.000000000000E+000  0.000000000000E+000  0.000000000000E+000  0.000000000000E+000  0.000000000000E+000  0.000000000000E+000  1.000000000000E+000  0.000000000000E+000  0.000000000000E+000  0.000000000000E+000  0.000000000000E+000  0.000000000000E+000
    0.000000000000E+000  0.000000000000E+000  0.000000000000E+000  0.000000000000E+000  0.000000000000E+000  0.000000000000E+000  0.000000000000E+000  0.000000000000E+000  0.000000000000E+000  0.000000000000E+000  0.000000000000E+000  0.000000000000E+000  0.000000000000E+000  0.000000000000E+000  0.000000000000E+000  0.000000000000E+000  0.000000000000E+000  0.000000000000E+000  0.000000000000E+000  0.000000000000E+000  0.000000000000E+000  0.000000000000E+000  0.000000000000E+000  0.000000000000E+000  0.000000000000E+000  0.000000000000E+000  0.000000000000E+000  1.000000000000E+000  0.000000000000E+000  0.000000000000E+000  0.000000000000E+000  0.000000000000E+000