
Linearized model: Predictions were generated on 11-Mar-2026 at 17:04:04 using OpenFAST, compiled on Mar 11 2026 at 16:48:05 as a 64-bit application using double precision at commit -128-NOTFOUND
 linked with  NWTC Subroutine Library; ElastoDyn; InflowWind; AeroDyn; ServoDyn

Description from the FAST input file: NREL 5.0 MW Baseline Wind Turbine (Onshore), Linearization with AeroDyn + ED

Simulation information:
   Simulation time:                     1.0000 s
   Rotor Speed:                         1.2798 rad/s
   Azimuth:                             1.2699 rad
   Wind Speed:                          8.0000 m/s
   Number of continuous states:       228
   Number of discrete states:           0
   Number of constraint states:         0
   Number of inputs:                   60
   Number of outputs:                   0
   Jacobians included in this file?    No

Order of continuous states:
   Row/Column Operating Point                                                   Rotating Frame? Derivative Order Description
   ---------- ---------------                                                   --------------- ---------------- -----------
          1   -7.916167629738E+000                                                     T               2         vind (axial) at blade 1, node 1, m/s
          2    0.000000000000E+000                                                     T               2         vind (tangential) at blade 1, node 1, m/s
          3    0.000000000000E+000                                                     T               2         vind (axial) at blade 1, node 2, m/s
          4    0.000000000000E+000                                                     T               2         vind (tangential) at blade 1, node 2, m/s
          5    0.000000000000E+000                                                     T               2         vind (axial) at blade 1, node 3, m/s
          6    0.000000000000E+000                                                     T               2         vind (tangential) at blade 1, node 3, m/s
          7    0.000000000000E+000                                                     T               2         vind (axial) at blade 1, node 4, m/s
          8    0.000000000000E+000                                                     T               2         vind (tangential) at blade 1, node 4, m/s
          9   -2.217835631112E+000                                                     T               2         vind (axial) at blade 1, node 5, m/s
         10    8.017199186714E-001                                                     T               2         vind (tangential) at blade 1, node 5, m/s
         11   -2.072718393651E+000                                                     T               2         vind (axial) at blade 1, node 6, m/s
         12    5.831917773742E-001                                                     T               2         vind (tangential) at blade 1, node 6, m/s
         13   -1.839512569134E+000                                                     T               2         vind (axial) at blade 1, node 7, m/s
         14    4.312699267590E-001                                                     T               2         vind (tangential) at blade 1, node 7, m/s
         15   -1.867939457398E+000                                                     T               2         vind (axial) at blade 1, node 8, m/s
         16    3.615021391944E-001                                                     T               2         vind (tangential) at blade 1, node 8, m/s
         17   -2.270337587716E+000                                                     T               2         vind (axial) at blade 1, node 9, m/s
         18    3.478741081189E-001                                                     T               2         vind (tangential) at blade 1, node 9, m/s
         19   -2.435626886435E+000                                                     T               2         vind (axial) at blade 1, node 10, m/s
         20    3.129059259404E-001                                                     T               2         vind (tangential) at blade 1, node 10, m/s
         21   -3.016379804126E+000                                                     T               2         vind (axial) at blade 1, node 11, m/s
         22    3.008107776219E-001                                                     T               2         vind (tangential) at blade 1, node 11, m/s
         23   -3.446917482848E+000                                                     T               2         vind (axial) at blade 1, node 12, m/s
         24    2.786121180892E-001                                                     T               2         vind (tangential) at blade 1, node 12, m/s
         25   -3.432611623416E+000                                                     T               2         vind (axial) at blade 1, node 13, m/s
         26    2.459425993763E-001                                                     T               2         vind (tangential) at blade 1, node 13, m/s
         27   -3.710388093984E+000                                                     T               2         vind (axial) at blade 1, node 14, m/s
         28    2.268795288238E-001                                                     T               2         vind (tangential) at blade 1, node 14, m/s
         29   -4.049288990869E+000                                                     T               2         vind (axial) at blade 1, node 15, m/s
         30    2.083966612057E-001                                                     T               2         vind (tangential) at blade 1, node 15, m/s
         31   -4.235091826378E+000                                                     T               2         vind (axial) at blade 1, node 16, m/s
         32    1.990507691040E-001                                                     T               2         vind (tangential) at blade 1, node 16, m/s
         33   -4.240708094669E+000                                                     T               2         vind (axial) at blade 1, node 17, m/s
         34    1.926281542821E-001                                                     T               2         vind (tangential) at blade 1, node 17, m/s
         35   -3.840788932543E+000                                                     T               2         vind (axial) at blade 1, node 18, m/s
         36    1.800988455098E-001                                                     T               2         vind (tangential) at blade 1, node 18, m/s
         37   -6.073976790962E+000                                                     T               2         vind (axial) at blade 1, node 19, m/s
         38    0.000000000000E+000                                                     T               2         vind (tangential) at blade 1, node 19, m/s
         39   -7.714831731963E+000                                                     T               2         vind (axial) at blade 2, node 1, m/s
         40    0.000000000000E+000                                                     T               2         vind (tangential) at blade 2, node 1, m/s
         41    0.000000000000E+000                                                     T               2         vind (axial) at blade 2, node 2, m/s
         42    0.000000000000E+000                                                     T               2         vind (tangential) at blade 2, node 2, m/s
         43    0.000000000000E+000                                                     T               2         vind (axial) at blade 2, node 3, m/s
         44    0.000000000000E+000                                                     T               2         vind (tangential) at blade 2, node 3, m/s
         45    0.000000000000E+000                                                     T               2         vind (axial) at blade 2, node 4, m/s
         46    0.000000000000E+000                                                     T               2         vind (tangential) at blade 2, node 4, m/s
         47   -2.194190760389E+000                                                     T               2         vind (axial) at blade 2, node 5, m/s
         48    7.689420797941E-001                                                     T               2         vind (tangential) at blade 2, node 5, m/s
         49   -2.048422651620E+000                                                     T               2         vind (axial) at blade 2, node 6, m/s
         50    5.655558107157E-001                                                     T               2         vind (tangential) at blade 2, node 6, m/s
         51   -1.822948558106E+000                                                     T               2         vind (axial) at blade 2, node 7, m/s
         52    4.214836866966E-001                                                     T               2         vind (tangential) at blade 2, node 7, m/s
         53   -1.861122080199E+000                                                     T               2         vind (axial) at blade 2, node 8, m/s
         54    3.562933666285E-001                                                     T               2         vind (tangential) at blade 2, node 8, m/s
         55   -2.276314679642E+000                                                     T               2         vind (axial) at blade 2, node 9, m/s
         56    3.458357331570E-001                                                     T               2         vind (tangential) at blade 2, node 9, m/s
         57   -2.446230352843E+000                                                     T               2         vind (axial) at blade 2, node 10, m/s
         58    3.128442731523E-001                                                     T               2         vind (tangential) at blade 2, node 10, m/s
         59   -3.031019717218E+000                                                     T               2         vind (axial) at blade 2, node 11, m/s
         60    3.025597724180E-001                                                     T               2         vind (tangential) at blade 2, node 11, m/s
         61   -3.457576895563E+000                                                     T               2         vind (axial) at blade 2, node 12, m/s
         62    2.818436116322E-001                                                     T               2         vind (tangential) at blade 2, node 12, m/s
         63   -3.426018138061E+000                                                     T               2         vind (axial) at blade 2, node 13, m/s
         64    2.504865687629E-001                                                     T               2         vind (tangential) at blade 2, node 13, m/s
         65   -3.678973939817E+000                                                     T               2         vind (axial) at blade 2, node 14, m/s
         66    2.328113120862E-001                                                     T               2         vind (tangential) at blade 2, node 14, m/s
         67   -3.932601513561E+000                                                     T               2         vind (axial) at blade 2, node 15, m/s
         68    2.171908771967E-001                                                     T               2         vind (tangential) at blade 2, node 15, m/s
         69   -3.972436341032E+000                                                     T               2         vind (axial) at blade 2, node 16, m/s
         70    2.106043076862E-001                                                     T               2         vind (tangential) at blade 2, node 16, m/s
         71   -3.917355118143E+000                                                     T               2         vind (axial) at blade 2, node 17, m/s
         72    1.871033908231E-001                                                     T               2         vind (tangential) at blade 2, node 17, m/s
         73   -3.557005863189E+000                                                     T               2         vind (axial) at blade 2, node 18, m/s
         74    1.710990839463E-001                                                     T               2         vind (tangential) at blade 2, node 18, m/s
         75   -6.358787640600E+000                                                     T               2         vind (axial) at blade 2, node 19, m/s
         76    0.000000000000E+000                                                     T               2         vind (tangential) at blade 2, node 19, m/s
         77   -7.847596864955E+000                                                     T               2         vind (axial) at blade 3, node 1, m/s
         78    0.000000000000E+000                                                     T               2         vind (tangential) at blade 3, node 1, m/s
         79    0.000000000000E+000                                                     T               2         vind (axial) at blade 3, node 2, m/s
         80    0.000000000000E+000                                                     T               2         vind (tangential) at blade 3, node 2, m/s
         81    0.000000000000E+000                                                     T               2         vind (axial) at blade 3, node 3, m/s
         82    0.000000000000E+000                                                     T               2         vind (tangential) at blade 3, node 3, m/s
         83    0.000000000000E+000                                                     T               2         vind (axial) at blade 3, node 4, m/s
         84    0.000000000000E+000                                                     T               2         vind (tangential) at blade 3, node 4, m/s
         85   -2.237498058731E+000                                                     T               2         vind (axial) at blade 3, node 5, m/s
         86    8.527576752834E-001                                                     T               2         vind (tangential) at blade 3, node 5, m/s
         87   -2.113398815223E+000                                                     T               2         vind (axial) at blade 3, node 6, m/s
         88    6.155213637706E-001                                                     T               2         vind (tangential) at blade 3, node 6, m/s
         89   -1.875100489980E+000                                                     T               2         vind (axial) at blade 3, node 7, m/s
         90    4.512510237594E-001                                                     T               2         vind (tangential) at blade 3, node 7, m/s
         91   -1.891403159880E+000                                                     T               2         vind (axial) at blade 3, node 8, m/s
         92    3.741926689210E-001                                                     T               2         vind (tangential) at blade 3, node 8, m/s
         93   -2.274155614451E+000                                                     T               2         vind (axial) at blade 3, node 9, m/s
         94    3.560327956862E-001                                                     T               2         vind (tangential) at blade 3, node 9, m/s
         95   -2.432528209395E+000                                                     T               2         vind (axial) at blade 3, node 10, m/s
         96    3.189603541657E-001                                                     T               2         vind (tangential) at blade 3, node 10, m/s
         97   -2.994736578768E+000                                                     T               2         vind (axial) at blade 3, node 11, m/s
         98    3.058595894470E-001                                                     T               2         vind (tangential) at blade 3, node 11, m/s
         99   -3.418988163811E+000                                                     T               2         vind (axial) at blade 3, node 12, m/s
        100    2.831001914600E-001                                                     T               2         vind (tangential) at blade 3, node 12, m/s
        101   -3.398818654507E+000                                                     T               2         vind (axial) at blade 3, node 13, m/s
        102    2.502269967155E-001                                                     T               2         vind (tangential) at blade 3, node 13, m/s
        103   -3.672130241170E+000                                                     T               2         vind (axial) at blade 3, node 14, m/s
        104    2.314846921262E-001                                                     T               2         vind (tangential) at blade 3, node 14, m/s
        105   -3.986089204096E+000                                                     T               2         vind (axial) at blade 3, node 15, m/s
        106    2.144002216193E-001                                                     T               2         vind (tangential) at blade 3, node 15, m/s
        107   -4.104366182831E+000                                                     T               2         vind (axial) at blade 3, node 16, m/s
        108    2.067777232430E-001                                                     T               2         vind (tangential) at blade 3, node 16, m/s
        109   -4.090739309499E+000                                                     T               2         vind (axial) at blade 3, node 17, m/s
        110    2.021673575440E-001                                                     T               2         vind (tangential) at blade 3, node 17, m/s
        111   -3.726742071150E+000                                                     T               2         vind (axial) at blade 3, node 18, m/s
        112    1.712084678978E-001                                                     T               2         vind (tangential) at blade 3, node 18, m/s
        113   -6.339398951107E+000                                                     T               2         vind (axial) at blade 3, node 19, m/s
        114    0.000000000000E+000                                                     T               2         vind (tangential) at blade 3, node 19, m/s
        115   -3.176054377750E+000                                                     T               2         First time derivative of vind (axial) at blade 1, node 1, m/s/s
        116    0.000000000000E+000                                                     T               2         First time derivative of vind (tangential) at blade 1, node 1, m/s/s
        117    0.000000000000E+000                                                     T               2         First time derivative of vind (axial) at blade 1, node 2, m/s/s
        118    0.000000000000E+000                                                     T               2         First time derivative of vind (tangential) at blade 1, node 2, m/s/s
        119    0.000000000000E+000                                                     T               2         First time derivative of vind (axial) at blade 1, node 3, m/s/s
        120    0.000000000000E+000                                                     T               2         First time derivative of vind (tangential) at blade 1, node 3, m/s/s
        121    0.000000000000E+000                                                     T               2         First time derivative of vind (axial) at blade 1, node 4, m/s/s
        122    0.000000000000E+000                                                     T               2         First time derivative of vind (tangential) at blade 1, node 4, m/s/s
        123   -8.915985485822E-001                                                     T               2         First time derivative of vind (axial) at blade 1, node 5, m/s/s
        124    3.239725258723E-001                                                     T               2         First time derivative of vind (tangential) at blade 1, node 5, m/s/s
        125   -8.353408440952E-001                                                     T               2         First time derivative of vind (axial) at blade 1, node 6, m/s/s
        126    2.362244901846E-001                                                     T               2         First time derivative of vind (tangential) at blade 1, node 6, m/s/s
        127   -7.432532807064E-001                                                     T               2         First time derivative of vind (axial) at blade 1, node 7, m/s/s
        128    1.752519565737E-001                                                     T               2         First time derivative of vind (tangential) at blade 1, node 7, m/s/s
        129   -7.558808394485E-001                                                     T               2         First time derivative of vind (axial) at blade 1, node 8, m/s/s
        130    1.473561429202E-001                                                     T               2         First time derivative of vind (tangential) at blade 1, node 8, m/s/s
        131   -9.174789175361E-001                                                     T               2         First time derivative of vind (axial) at blade 1, node 9, m/s/s
        132    1.421172166377E-001                                                     T               2         First time derivative of vind (tangential) at blade 1, node 9, m/s/s
        133   -9.852440501345E-001                                                     T               2         First time derivative of vind (axial) at blade 1, node 10, m/s/s
        134    1.285519980312E-001                                                     T               2         First time derivative of vind (tangential) at blade 1, node 10, m/s/s
        135   -1.215189304009E+000                                                     T               2         First time derivative of vind (axial) at blade 1, node 11, m/s/s
        136    1.244814981168E-001                                                     T               2         First time derivative of vind (tangential) at blade 1, node 11, m/s/s
        137   -1.387999024165E+000                                                     T               2         First time derivative of vind (axial) at blade 1, node 12, m/s/s
        138    1.164125779340E-001                                                     T               2         First time derivative of vind (tangential) at blade 1, node 12, m/s/s
        139   -1.377532040896E+000                                                     T               2         First time derivative of vind (axial) at blade 1, node 13, m/s/s
        140    1.041403911419E-001                                                     T               2         First time derivative of vind (tangential) at blade 1, node 13, m/s/s
        141   -1.488079431266E+000                                                     T               2         First time derivative of vind (axial) at blade 1, node 14, m/s/s
        142    9.759426796247E-002                                                     T               2         First time derivative of vind (tangential) at blade 1, node 14, m/s/s
        143   -1.612184423785E+000                                                     T               2         First time derivative of vind (axial) at blade 1, node 15, m/s/s
        144    9.182820911094E-002                                                     T               2         First time derivative of vind (tangential) at blade 1, node 15, m/s/s
        145   -1.697149916424E+000                                                     T               2         First time derivative of vind (axial) at blade 1, node 16, m/s/s
        146    8.902634551085E-002                                                     T               2         First time derivative of vind (tangential) at blade 1, node 16, m/s/s
        147   -1.731951622913E+000                                                     T               2         First time derivative of vind (axial) at blade 1, node 17, m/s/s
        148    8.743988351868E-002                                                     T               2         First time derivative of vind (tangential) at blade 1, node 17, m/s/s
        149   -1.630076792407E+000                                                     T               2         First time derivative of vind (axial) at blade 1, node 18, m/s/s
        150    8.423661725448E-002                                                     T               2         First time derivative of vind (tangential) at blade 1, node 18, m/s/s
        151   -2.832333704672E+000                                                     T               2         First time derivative of vind (axial) at blade 1, node 19, m/s/s
        152    0.000000000000E+000                                                     T               2         First time derivative of vind (tangential) at blade 1, node 19, m/s/s
        153   -3.108757637328E+000                                                     T               2         First time derivative of vind (axial) at blade 2, node 1, m/s/s
        154    0.000000000000E+000                                                     T               2         First time derivative of vind (tangential) at blade 2, node 1, m/s/s
        155    0.000000000000E+000                                                     T               2         First time derivative of vind (axial) at blade 2, node 2, m/s/s
        156    0.000000000000E+000                                                     T               2         First time derivative of vind (tangential) at blade 2, node 2, m/s/s
        157    0.000000000000E+000                                                     T               2         First time derivative of vind (axial) at blade 2, node 3, m/s/s
        158    0.000000000000E+000                                                     T               2         First time derivative of vind (tangential) at blade 2, node 3, m/s/s
        159    0.000000000000E+000                                                     T               2         First time derivative of vind (axial) at blade 2, node 4, m/s/s
        160    0.000000000000E+000                                                     T               2         First time derivative of vind (tangential) at blade 2, node 4, m/s/s
        161   -8.860547625230E-001                                                     T               2         First time derivative of vind (axial) at blade 2, node 5, m/s/s
        162    3.118577675580E-001                                                     T               2         First time derivative of vind (tangential) at blade 2, node 5, m/s/s
        163   -8.275144727869E-001                                                     T               2         First time derivative of vind (axial) at blade 2, node 6, m/s/s
        164    2.294073157149E-001                                                     T               2         First time derivative of vind (tangential) at blade 2, node 6, m/s/s
        165   -7.369798373753E-001                                                     T               2         First time derivative of vind (axial) at blade 2, node 7, m/s/s
        166    1.711253721083E-001                                                     T               2         First time derivative of vind (tangential) at blade 2, node 7, m/s/s
        167   -7.524740670411E-001                                                     T               2         First time derivative of vind (axial) at blade 2, node 8, m/s/s
        168    1.447855333717E-001                                                     T               2         First time derivative of vind (tangential) at blade 2, node 8, m/s/s
        169   -9.190645127758E-001                                                     T               2         First time derivative of vind (axial) at blade 2, node 9, m/s/s
        170    1.406223760668E-001                                                     T               2         First time derivative of vind (tangential) at blade 2, node 9, m/s/s
        171   -9.884401811174E-001                                                     T               2         First time derivative of vind (axial) at blade 2, node 10, m/s/s
        172    1.276245927165E-001                                                     T               2         First time derivative of vind (tangential) at blade 2, node 10, m/s/s
        173   -1.222232044163E+000                                                     T               2         First time derivative of vind (axial) at blade 2, node 11, m/s/s
        174    1.239825324853E-001                                                     T               2         First time derivative of vind (tangential) at blade 2, node 11, m/s/s
        175   -1.395606145781E+000                                                     T               2         First time derivative of vind (axial) at blade 2, node 12, m/s/s
        176    1.162259202901E-001                                                     T               2         First time derivative of vind (tangential) at blade 2, node 12, m/s/s
        177   -1.383214344651E+000                                                     T               2         First time derivative of vind (axial) at blade 2, node 13, m/s/s