
Linearized model: Predictions were generated on 13-Sep-2024 at 15:21:25 using OpenFAST, compiled on Sep 13 2024 at 13:41:05 as a 64-bit application using double precision at commit HEAD-HASH-NOTFOUND
 linked with  NWTC Subroutine Library; ElastoDyn; InflowWind; AeroDyn; ServoDyn

Description from the FAST input file: NREL 5.0 MW Baseline Wind Turbine (Onshore), Linearization with AeroDyn + ED

Simulation information:
   Simulation time:                     1.0000 s
   Rotor Speed:                         1.2798 rad/s
   Azimuth:                             1.2699 rad
   Wind Speed:                          8.0000 m/s
   Number of continuous states:       260
   Number of discrete states:           0
   Number of constraint states:         0
   Number of inputs:                   69
   Number of outputs:                  38
   Jacobians included in this file?    No

Order of continuous states:
   Row/Column Operating Point                                                   Rotating Frame? Derivative Order Description
   ---------- ---------------                                                   --------------- ---------------- -----------
          1    2.059344585061E-001                                                     F               2         ED 1st tower fore-aft bending mode DOF (internal DOF index = DOF_TFA1), m
          2   -5.117887347263E-003                                                     F               2         ED 1st tower side-to-side bending mode DOF (internal DOF index = DOF_TSS1), m
          3   -6.209174659779E-005                                                     F               2         ED 2nd tower fore-aft bending mode DOF (internal DOF index = DOF_TFA2), m
          4    1.734994959903E-005                                                     F               2         ED 2nd tower side-to-side bending mode DOF (internal DOF index = DOF_TSS2), m
          5    5.080875431564E-005                                                     F               2         ED Nacelle yaw DOF (internal DOF index = DOF_Yaw), rad
          6    5.982241184250E+000                                                     F               2         ED Variable speed generator DOF (internal DOF index = DOF_GeAz), rad
          7    2.961625485879E-005                                                     F               2         ED Drivetrain rotational-flexibility DOF (internal DOF index = DOF_DrTr), rad
          8    3.814753024997E+000                                                     T               2         ED 1st flapwise bending-mode DOF of blade 1 (internal DOF index = DOF_BF(1,1)), m
          9    4.021888850882E+000                                                     T               2         ED 1st flapwise bending-mode DOF of blade 2 (internal DOF index = DOF_BF(2,1)), m
         10    3.637429234028E+000                                                     T               2         ED 1st flapwise bending-mode DOF of blade 3 (internal DOF index = DOF_BF(3,1)), m
         11   -1.670451572773E-001                                                     T               2         ED 1st edgewise bending-mode DOF of blade 1 (internal DOF index = DOF_BE(1,1)), m
         12    5.887694466091E-001                                                     T               2         ED 1st edgewise bending-mode DOF of blade 2 (internal DOF index = DOF_BE(2,1)), m
         13    1.921373213128E-001                                                     T               2         ED 1st edgewise bending-mode DOF of blade 3 (internal DOF index = DOF_BE(3,1)), m
         14    5.108494330511E-002                                                     T               2         ED 2nd flapwise bending-mode DOF of blade 1 (internal DOF index = DOF_BF(1,2)), m
         15    1.777538508691E-001                                                     T               2         ED 2nd flapwise bending-mode DOF of blade 2 (internal DOF index = DOF_BF(2,2)), m
         16    1.375688465831E-001                                                     T               2         ED 2nd flapwise bending-mode DOF of blade 3 (internal DOF index = DOF_BF(3,2)), m
         17    4.685445809433E-001                                                     F               2         ED First time derivative of 1st tower fore-aft bending mode DOF (internal DOF index = DOF_TFA1), m/s
         18    1.821470164896E-002                                                     F               2         ED First time derivative of 1st tower side-to-side bending mode DOF (internal DOF index = DOF_TSS1), m/s
         19    1.239903238450E-003                                                     F               2         ED First time derivative of 2nd tower fore-aft bending mode DOF (internal DOF index = DOF_TFA2), m/s
         20    9.941129928717E-005                                                     F               2         ED First time derivative of 2nd tower side-to-side bending mode DOF (internal DOF index = DOF_TSS2), m/s
         21   -1.855156541755E-004                                                     F               2         ED First time derivative of Nacelle yaw DOF (internal DOF index = DOF_Yaw), rad/s
         22    1.277432499619E+000                                                     F               2         ED First time derivative of Variable speed generator DOF (internal DOF index = DOF_GeAz), rad/s
         23    2.390431030741E-003                                                     F               2         ED First time derivative of Drivetrain rotational-flexibility DOF (internal DOF index = DOF_DrTr), rad/s
         24   -3.480907487476E-001                                                     T               2         ED First time derivative of 1st flapwise bending-mode DOF of blade 1 (internal DOF index = DOF_BF(1,1)), m/s
         25   -1.208156205147E+000                                                     T               2         ED First time derivative of 1st flapwise bending-mode DOF of blade 2 (internal DOF index = DOF_BF(2,1)), m/s
         26   -1.597710792823E+000                                                     T               2         ED First time derivative of 1st flapwise bending-mode DOF of blade 3 (internal DOF index = DOF_BF(3,1)), m/s
         27    1.634576861807E-001                                                     T               2         ED First time derivative of 1st edgewise bending-mode DOF of blade 1 (internal DOF index = DOF_BE(1,1)), m/s
         28   -1.244951156841E+000                                                     T               2         ED First time derivative of 1st edgewise bending-mode DOF of blade 2 (internal DOF index = DOF_BE(2,1)), m/s
         29    3.426899787895E-001                                                     T               2         ED First time derivative of 1st edgewise bending-mode DOF of blade 3 (internal DOF index = DOF_BE(3,1)), m/s
         30   -1.506000189775E-001                                                     T               2         ED First time derivative of 2nd flapwise bending-mode DOF of blade 1 (internal DOF index = DOF_BF(1,2)), m/s
         31   -4.827851232019E-001                                                     T               2         ED First time derivative of 2nd flapwise bending-mode DOF of blade 2 (internal DOF index = DOF_BF(2,2)), m/s
         32   -2.068067999397E-001                                                     T               2         ED First time derivative of 2nd flapwise bending-mode DOF of blade 3 (internal DOF index = DOF_BF(3,2)), m/s
         33   -7.916168005670E+000                                                     T               2         AD vind (axial) at blade 1, node 1, m/s
         34    0.000000000000E+000                                                     T               2         AD vind (tangential) at blade 1, node 1, m/s
         35    0.000000000000E+000                                                     T               2         AD vind (axial) at blade 1, node 2, m/s
         36    0.000000000000E+000                                                     T               2         AD vind (tangential) at blade 1, node 2, m/s
         37    0.000000000000E+000                                                     T               2         AD vind (axial) at blade 1, node 3, m/s
         38    0.000000000000E+000                                                     T               2         AD vind (tangential) at blade 1, node 3, m/s
         39    0.000000000000E+000                                                     T               2         AD vind (axial) at blade 1, node 4, m/s
         40    0.000000000000E+000                                                     T               2         AD vind (tangential) at blade 1, node 4, m/s
         41   -2.217833234144E+000                                                     T               2         AD vind (axial) at blade 1, node 5, m/s
         42    8.017185344236E-001                                                     T               2         AD vind (tangential) at blade 1, node 5, m/s
         43   -2.072713399018E+000                                                     T               2         AD vind (axial) at blade 1, node 6, m/s
         44    5.831897346601E-001                                                     T               2         AD vind (tangential) at blade 1, node 6, m/s
         45   -1.839503803378E+000                                                     T               2         AD vind (axial) at blade 1, node 7, m/s
         46    4.312671143129E-001                                                     T               2         AD vind (tangential) at blade 1, node 7, m/s
         47   -1.867926640626E+000                                                     T               2         AD vind (axial) at blade 1, node 8, m/s
         48    3.614985321428E-001                                                     T               2         AD vind (tangential) at blade 1, node 8, m/s
         49   -2.270321640783E+000                                                     T               2         AD vind (axial) at blade 1, node 9, m/s
         50    3.478695804291E-001                                                     T               2         AD vind (tangential) at blade 1, node 9, m/s
         51   -2.435608842949E+000                                                     T               2         AD vind (axial) at blade 1, node 10, m/s
         52    3.129004621838E-001                                                     T               2         AD vind (tangential) at blade 1, node 10, m/s
         53   -3.016371861081E+000                                                     T               2         AD vind (axial) at blade 1, node 11, m/s
         54    3.008043416987E-001                                                     T               2         AD vind (tangential) at blade 1, node 11, m/s
         55   -3.446926050673E+000                                                     T               2         AD vind (axial) at blade 1, node 12, m/s
         56    2.786060639615E-001                                                     T               2         AD vind (tangential) at blade 1, node 12, m/s
         57   -3.432659020486E+000                                                     T               2         AD vind (axial) at blade 1, node 13, m/s
         58    2.459384171194E-001                                                     T               2         AD vind (tangential) at blade 1, node 13, m/s
         59   -3.710489523270E+000                                                     T               2         AD vind (axial) at blade 1, node 14, m/s
         60    2.268791324079E-001                                                     T               2         AD vind (tangential) at blade 1, node 14, m/s
         61   -4.049468569380E+000                                                     T               2         AD vind (axial) at blade 1, node 15, m/s
         62    2.084016186601E-001                                                     T               2         AD vind (tangential) at blade 1, node 15, m/s
         63   -4.235356375941E+000                                                     T               2         AD vind (axial) at blade 1, node 16, m/s
         64    1.990593472212E-001                                                     T               2         AD vind (tangential) at blade 1, node 16, m/s
         65   -4.241023908689E+000                                                     T               2         AD vind (axial) at blade 1, node 17, m/s
         66    1.926372066305E-001                                                     T               2         AD vind (tangential) at blade 1, node 17, m/s
         67   -3.841047290401E+000                                                     T               2         AD vind (axial) at blade 1, node 18, m/s
         68    1.801046101480E-001                                                     T               2         AD vind (tangential) at blade 1, node 18, m/s
         69   -6.074009618614E+000                                                     T               2         AD vind (axial) at blade 1, node 19, m/s
         70    0.000000000000E+000                                                     T               2         AD vind (tangential) at blade 1, node 19, m/s
         71   -7.714833009066E+000                                                     T               2         AD vind (axial) at blade 2, node 1, m/s
         72    0.000000000000E+000                                                     T               2         AD vind (tangential) at blade 2, node 1, m/s
         73    0.000000000000E+000                                                     T               2         AD vind (axial) at blade 2, node 2, m/s
         74    0.000000000000E+000                                                     T               2         AD vind (tangential) at blade 2, node 2, m/s
         75    0.000000000000E+000                                                     T               2         AD vind (axial) at blade 2, node 3, m/s
         76    0.000000000000E+000                                                     T               2         AD vind (tangential) at blade 2, node 3, m/s
         77    0.000000000000E+000                                                     T               2         AD vind (axial) at blade 2, node 4, m/s
         78    0.000000000000E+000                                                     T               2         AD vind (tangential) at blade 2, node 4, m/s
         79   -2.194191043223E+000                                                     T               2         AD vind (axial) at blade 2, node 5, m/s
         80    7.689420578395E-001                                                     T               2         AD vind (tangential) at blade 2, node 5, m/s
         81   -2.048422081215E+000                                                     T               2         AD vind (axial) at blade 2, node 6, m/s
         82    5.655554687212E-001                                                     T               2         AD vind (tangential) at blade 2, node 6, m/s
         83   -1.822946670184E+000                                                     T               2         AD vind (axial) at blade 2, node 7, m/s
         84    4.214829707830E-001                                                     T               2         AD vind (tangential) at blade 2, node 7, m/s
         85   -1.861118776830E+000                                                     T               2         AD vind (axial) at blade 2, node 8, m/s
         86    3.562923106733E-001                                                     T               2         AD vind (tangential) at blade 2, node 8, m/s
         87   -2.276310208572E+000                                                     T               2         AD vind (axial) at blade 2, node 9, m/s
         88    3.458342054495E-001                                                     T               2         AD vind (tangential) at blade 2, node 9, m/s
         89   -2.446224633478E+000                                                     T               2         AD vind (axial) at blade 2, node 10, m/s
         90    3.128421386614E-001                                                     T               2         AD vind (tangential) at blade 2, node 10, m/s
         91   -3.031020292554E+000                                                     T               2         AD vind (axial) at blade 2, node 11, m/s
         92    3.025569357993E-001                                                     T               2         AD vind (tangential) at blade 2, node 11, m/s
         93   -3.457586964518E+000                                                     T               2         AD vind (axial) at blade 2, node 12, m/s
         94    2.818406958985E-001                                                     T               2         AD vind (tangential) at blade 2, node 12, m/s
         95   -3.426050910943E+000                                                     T               2         AD vind (axial) at blade 2, node 13, m/s
         96    2.504847107807E-001                                                     T               2         AD vind (tangential) at blade 2, node 13, m/s
         97   -3.679036173759E+000                                                     T               2         AD vind (axial) at blade 2, node 14, m/s
         98    2.328123084289E-001                                                     T               2         AD vind (tangential) at blade 2, node 14, m/s
         99   -3.932687501230E+000                                                     T               2         AD vind (axial) at blade 2, node 15, m/s
        100    2.171969547319E-001                                                     T               2         AD vind (tangential) at blade 2, node 15, m/s
        101   -3.972536946233E+000                                                     T               2         AD vind (axial) at blade 2, node 16, m/s
        102    2.106149821263E-001                                                     T               2         AD vind (tangential) at blade 2, node 16, m/s
        103   -3.917464544584E+000                                                     T               2         AD vind (axial) at blade 2, node 17, m/s
        104    1.871143721143E-001                                                     T               2         AD vind (tangential) at blade 2, node 17, m/s
        105   -3.557091558490E+000                                                     T               2         AD vind (axial) at blade 2, node 18, m/s
        106    1.711031032975E-001                                                     T               2         AD vind (tangential) at blade 2, node 18, m/s
        107   -6.358780709815E+000                                                     T               2         AD vind (axial) at blade 2, node 19, m/s
        108    0.000000000000E+000                                                     T               2         AD vind (tangential) at blade 2, node 19, m/s
        109   -7.847597633902E+000                                                     T               2         AD vind (axial) at blade 3, node 1, m/s
        110    0.000000000000E+000                                                     T               2         AD vind (tangential) at blade 3, node 1, m/s
        111    0.000000000000E+000                                                     T               2         AD vind (axial) at blade 3, node 2, m/s
        112    0.000000000000E+000                                                     T               2         AD vind (tangential) at blade 3, node 2, m/s
        113    0.000000000000E+000                                                     T               2         AD vind (axial) at blade 3, node 3, m/s
        114    0.000000000000E+000                                                     T               2         AD vind (tangential) at blade 3, node 3, m/s
        115    0.000000000000E+000                                                     T               2         AD vind (axial) at blade 3, node 4, m/s
        116    0.000000000000E+000                                                     T               2         AD vind (tangential) at blade 3, node 4, m/s
        117   -2.237497392170E+000                                                     T               2         AD vind (axial) at blade 3, node 5, m/s
        118    8.527566915010E-001                                                     T               2         AD vind (tangential) at blade 3, node 5, m/s
        119   -2.113397122034E+000                                                     T               2         AD vind (axial) at blade 3, node 6, m/s
        120    6.155203453481E-001                                                     T               2         AD vind (tangential) at blade 3, node 6, m/s
        121   -1.875098016724E+000                                                     T               2         AD vind (axial) at blade 3, node 7, m/s
        122    4.512499711303E-001                                                     T               2         AD vind (tangential) at blade 3, node 7, m/s
        123   -1.891400110944E+000                                                     T               2         AD vind (axial) at blade 3, node 8, m/s
        124    3.741915572382E-001                                                     T               2         AD vind (tangential) at blade 3, node 8, m/s
        125   -2.274152716159E+000                                                     T               2         AD vind (axial) at blade 3, node 9, m/s
        126    3.560316169627E-001                                                     T               2         AD vind (tangential) at blade 3, node 9, m/s
        127   -2.432524911271E+000                                                     T               2         AD vind (axial) at blade 3, node 10, m/s
        128    3.189590317973E-001                                                     T               2         AD vind (tangential) at blade 3, node 10, m/s
        129   -2.994735432102E+000                                                     T               2         AD vind (axial) at blade 3, node 11, m/s
        130    3.058582822338E-001                                                     T               2         AD vind (tangential) at blade 3, node 11, m/s
        131   -3.418988026467E+000                                                     T               2         AD vind (axial) at blade 3, node 12, m/s
        132    2.830993396688E-001                                                     T               2         AD vind (tangential) at blade 3, node 12, m/s
        133   -3.398818498424E+000                                                     T               2         AD vind (axial) at blade 3, node 13, m/s
        134    2.502273719231E-001                                                     T               2         AD vind (tangential) at blade 3, node 13, m/s
        135   -3.672126138197E+000                                                     T               2         AD vind (axial) at blade 3, node 14, m/s
        136    2.314873302547E-001                                                     T               2         AD vind (tangential) at blade 3, node 14, m/s
        137   -3.986074201703E+000                                                     T               2         AD vind (axial) at blade 3, node 15, m/s
        138    2.144059791692E-001                                                     T               2         AD vind (tangential) at blade 3, node 15, m/s
        139   -4.104348718005E+000                                                     T               2         AD vind (axial) at blade 3, node 16, m/s
        140    2.067860155480E-001                                                     T               2         AD vind (tangential) at blade 3, node 16, m/s
        141   -4.090734265956E+000                                                     T               2         AD vind (axial) at blade 3, node 17, m/s
        142    2.021767932746E-001                                                     T               2         AD vind (tangential) at blade 3, node 17, m/s
        143   -3.726756400457E+000                                                     T               2         AD vind (axial) at blade 3, node 18, m/s
        144    1.712191335515E-001                                                     T               2         AD vind (tangential) at blade 3, node 18, m/s
        145   -6.339612542474E+000                                                     T               2         AD vind (axial) at blade 3, node 19, m/s
        146    0.000000000000E+000                                                     T               2         AD vind (tangential) at blade 3, node 19, m/s
        147   -3.176054499078E+000                                                     T               2         AD First time derivative of vind (axial) at blade 1, node 1, m/s/s
        148    0.000000000000E+000                                                     T               2         AD First time derivative of vind (tangential) at blade 1, node 1, m/s/s
        149    0.000000000000E+000                                                     T               2         AD First time derivative of vind (axial) at blade 1, node 2, m/s/s
        150    0.000000000000E+000                                                     T               2         AD First time derivative of vind (tangential) at blade 1, node 2, m/s/s
        151    0.000000000000E+000                                                     T               2         AD First time derivative of vind (axial) at blade 1, node 3, m/s/s
        152    0.000000000000E+000                                                     T               2         AD First time derivative of vind (tangential) at blade 1, node 3, m/s/s
        153    0.000000000000E+000                                                     T               2         AD First time derivative of vind (axial) at blade 1, node 4, m/s/s
        154    0.000000000000E+000                                                     T               2         AD First time derivative of vind (tangential) at blade 1, node 4, m/s/s
        155   -8.915979420918E-001                                                     T               2         AD First time derivative of vind (axial) at blade 1, node 5, m/s/s
        156    3.239721818459E-001                                                     T               2         AD First time derivative of vind (tangential) at blade 1, node 5, m/s/s
        157   -8.353395948521E-001                                                     T               2         AD First time derivative of vind (axial) at blade 1, node 6, m/s/s
        158    2.362239824900E-001                                                     T               2         AD First time derivative of vind (tangential) at blade 1, node 6, m/s/s
        159   -7.432511291746E-001                                                     T               2         AD First time derivative of vind (axial) at blade 1, node 7, m/s/s
        160    1.752512684684E-001                                                     T               2         AD First time derivative of vind (tangential) at blade 1, node 7, m/s/s
        161   -7.558777817284E-001                                                     T               2         AD First time derivative of vind (axial) at blade 1, node 8, m/s/s
        162    1.473552838573E-001                                                     T               2         AD First time derivative of vind (tangential) at blade 1, node 8, m/s/s
        163   -9.174752514508E-001                                                     T               2         AD First time derivative of vind (axial) at blade 1, node 9, m/s/s
        164    1.421161767457E-001                                                     T               2         AD First time derivative of vind (tangential) at blade 1, node 9, m/s/s
        165   -9.852401122331E-001                                                     T               2         AD First time derivative of vind (axial) at blade 1, node 10, m/s/s
        166    1.285507992790E-001                                                     T               2         AD First time derivative of vind (tangential) at blade 1, node 10, m/s/s
        167   -1.215187791703E+000                                                     T               2         AD First time derivative of vind (axial) at blade 1, node 11, m/s/s
        168    1.244801677286E-001                                                     T               2         AD First time derivative of vind (tangential) at blade 1, node 11, m/s/s
        169   -1.388001104719E+000                                                     T               2         AD First time derivative of vind (axial) at blade 1, node 12, m/s/s
        170    1.164114292739E-001                                                     T               2         AD First time derivative of vind (tangential) at blade 1, node 12, m/s/s