
Linearized model: Predictions were generated on 13-Sep-2024 at 15:21:25 using OpenFAST, compiled on Sep 13 2024 at 13:41:05 as a 64-bit application using double precision at commit HEAD-HASH-NOTFOUND
 linked with  NWTC Subroutine Library; ElastoDyn; InflowWind; AeroDyn; ServoDyn

Description from the FAST input file: NREL 5.0 MW Baseline Wind Turbine (Onshore), Linearization with AeroDyn + ED

Simulation information:
   Simulation time:                     1.0000 s
   Rotor Speed:                         1.2798 rad/s
   Azimuth:                             1.2699 rad
   Wind Speed:                          8.0000 m/s
   Number of continuous states:       228
   Number of discrete states:           0
   Number of constraint states:         0
   Number of inputs:                   60
   Number of outputs:                   0
   Jacobians included in this file?    No

Order of continuous states:
   Row/Column Operating Point                                                   Rotating Frame? Derivative Order Description
   ---------- ---------------                                                   --------------- ---------------- -----------
          1   -7.916168005670E+000                                                     T               2         vind (axial) at blade 1, node 1, m/s
          2    0.000000000000E+000                                                     T               2         vind (tangential) at blade 1, node 1, m/s
          3    0.000000000000E+000                                                     T               2         vind (axial) at blade 1, node 2, m/s
          4    0.000000000000E+000                                                     T               2         vind (tangential) at blade 1, node 2, m/s
          5    0.000000000000E+000                                                     T               2         vind (axial) at blade 1, node 3, m/s
          6    0.000000000000E+000                                                     T               2         vind (tangential) at blade 1, node 3, m/s
          7    0.000000000000E+000                                                     T               2         vind (axial) at blade 1, node 4, m/s
          8    0.000000000000E+000                                                     T               2         vind (tangential) at blade 1, node 4, m/s
          9   -2.217833234144E+000                                                     T               2         vind (axial) at blade 1, node 5, m/s
         10    8.017185344236E-001                                                     T               2         vind (tangential) at blade 1, node 5, m/s
         11   -2.072713399018E+000                                                     T               2         vind (axial) at blade 1, node 6, m/s
         12    5.831897346601E-001                                                     T               2         vind (tangential) at blade 1, node 6, m/s
         13   -1.839503803378E+000                                                     T               2         vind (axial) at blade 1, node 7, m/s
         14    4.312671143129E-001                                                     T               2         vind (tangential) at blade 1, node 7, m/s
         15   -1.867926640626E+000                                                     T               2         vind (axial) at blade 1, node 8, m/s
         16    3.614985321428E-001                                                     T               2         vind (tangential) at blade 1, node 8, m/s
         17   -2.270321640783E+000                                                     T               2         vind (axial) at blade 1, node 9, m/s
         18    3.478695804291E-001                                                     T               2         vind (tangential) at blade 1, node 9, m/s
         19   -2.435608842949E+000                                                     T               2         vind (axial) at blade 1, node 10, m/s
         20    3.129004621838E-001                                                     T               2         vind (tangential) at blade 1, node 10, m/s
         21   -3.016371861081E+000                                                     T               2         vind (axial) at blade 1, node 11, m/s
         22    3.008043416987E-001                                                     T               2         vind (tangential) at blade 1, node 11, m/s
         23   -3.446926050673E+000                                                     T               2         vind (axial) at blade 1, node 12, m/s
         24    2.786060639615E-001                                                     T               2         vind (tangential) at blade 1, node 12, m/s
         25   -3.432659020486E+000                                                     T               2         vind (axial) at blade 1, node 13, m/s
         26    2.459384171194E-001                                                     T               2         vind (tangential) at blade 1, node 13, m/s
         27   -3.710489523270E+000                                                     T               2         vind (axial) at blade 1, node 14, m/s
         28    2.268791324079E-001                                                     T               2         vind (tangential) at blade 1, node 14, m/s
         29   -4.049468569380E+000                                                     T               2         vind (axial) at blade 1, node 15, m/s
         30    2.084016186601E-001                                                     T               2         vind (tangential) at blade 1, node 15, m/s
         31   -4.235356375941E+000                                                     T               2         vind (axial) at blade 1, node 16, m/s
         32    1.990593472212E-001                                                     T               2         vind (tangential) at blade 1, node 16, m/s
         33   -4.241023908689E+000                                                     T               2         vind (axial) at blade 1, node 17, m/s
         34    1.926372066305E-001                                                     T               2         vind (tangential) at blade 1, node 17, m/s
         35   -3.841047290401E+000                                                     T               2         vind (axial) at blade 1, node 18, m/s
         36    1.801046101480E-001                                                     T               2         vind (tangential) at blade 1, node 18, m/s
         37   -6.074009618614E+000                                                     T               2         vind (axial) at blade 1, node 19, m/s
         38    0.000000000000E+000                                                     T               2         vind (tangential) at blade 1, node 19, m/s
         39   -7.714833009066E+000                                                     T               2         vind (axial) at blade 2, node 1, m/s
         40    0.000000000000E+000                                                     T               2         vind (tangential) at blade 2, node 1, m/s
         41    0.000000000000E+000                                                     T               2         vind (axial) at blade 2, node 2, m/s
         42    0.000000000000E+000                                                     T               2         vind (tangential) at blade 2, node 2, m/s
         43    0.000000000000E+000                                                     T               2         vind (axial) at blade 2, node 3, m/s
         44    0.000000000000E+000                                                     T               2         vind (tangential) at blade 2, node 3, m/s
         45    0.000000000000E+000                                                     T               2         vind (axial) at blade 2, node 4, m/s
         46    0.000000000000E+000                                                     T               2         vind (tangential) at blade 2, node 4, m/s
         47   -2.194191043223E+000                                                     T               2         vind (axial) at blade 2, node 5, m/s
         48    7.689420578395E-001                                                     T               2         vind (tangential) at blade 2, node 5, m/s
         49   -2.048422081215E+000                                                     T               2         vind (axial) at blade 2, node 6, m/s
         50    5.655554687212E-001                                                     T               2         vind (tangential) at blade 2, node 6, m/s
         51   -1.822946670184E+000                                                     T               2         vind (axial) at blade 2, node 7, m/s
         52    4.214829707830E-001                                                     T               2         vind (tangential) at blade 2, node 7, m/s
         53   -1.861118776830E+000                                                     T               2         vind (axial) at blade 2, node 8, m/s
         54    3.562923106733E-001                                                     T               2         vind (tangential) at blade 2, node 8, m/s
         55   -2.276310208572E+000                                                     T               2         vind (axial) at blade 2, node 9, m/s
         56    3.458342054495E-001                                                     T               2         vind (tangential) at blade 2, node 9, m/s
         57   -2.446224633478E+000                                                     T               2         vind (axial) at blade 2, node 10, m/s
         58    3.128421386614E-001                                                     T               2         vind (tangential) at blade 2, node 10, m/s
         59   -3.031020292554E+000                                                     T               2         vind (axial) at blade 2, node 11, m/s
         60    3.025569357993E-001                                                     T               2         vind (tangential) at blade 2, node 11, m/s
         61   -3.457586964518E+000                                                     T               2         vind (axial) at blade 2, node 12, m/s
         62    2.818406958985E-001                                                     T               2         vind (tangential) at blade 2, node 12, m/s
         63   -3.426050910943E+000                                                     T               2         vind (axial) at blade 2, node 13, m/s
         64    2.504847107807E-001                                                     T               2         vind (tangential) at blade 2, node 13, m/s
         65   -3.679036173759E+000                                                     T               2         vind (axial) at blade 2, node 14, m/s
         66    2.328123084289E-001                                                     T               2         vind (tangential) at blade 2, node 14, m/s
         67   -3.932687501230E+000                                                     T               2         vind (axial) at blade 2, node 15, m/s
         68    2.171969547319E-001                                                     T               2         vind (tangential) at blade 2, node 15, m/s
         69   -3.972536946233E+000                                                     T               2         vind (axial) at blade 2, node 16, m/s
         70    2.106149821263E-001                                                     T               2         vind (tangential) at blade 2, node 16, m/s
         71   -3.917464544584E+000                                                     T               2         vind (axial) at blade 2, node 17, m/s
         72    1.871143721143E-001                                                     T               2         vind (tangential) at blade 2, node 17, m/s
         73   -3.557091558490E+000                                                     T               2         vind (axial) at blade 2, node 18, m/s
         74    1.711031032975E-001                                                     T               2         vind (tangential) at blade 2, node 18, m/s
         75   -6.358780709815E+000                                                     T               2         vind (axial) at blade 2, node 19, m/s
         76    0.000000000000E+000                                                     T               2         vind (tangential) at blade 2, node 19, m/s
         77   -7.847597633902E+000                                                     T               2         vind (axial) at blade 3, node 1, m/s
         78    0.000000000000E+000                                                     T               2         vind (tangential) at blade 3, node 1, m/s
         79    0.000000000000E+000                                                     T               2         vind (axial) at blade 3, node 2, m/s
         80    0.000000000000E+000                                                     T               2         vind (tangential) at blade 3, node 2, m/s
         81    0.000000000000E+000                                                     T               2         vind (axial) at blade 3, node 3, m/s
         82    0.000000000000E+000                                                     T               2         vind (tangential) at blade 3, node 3, m/s
         83    0.000000000000E+000                                                     T               2         vind (axial) at blade 3, node 4, m/s
         84    0.000000000000E+000                                                     T               2         vind (tangential) at blade 3, node 4, m/s
         85   -2.237497392170E+000                                                     T               2         vind (axial) at blade 3, node 5, m/s
         86    8.527566915010E-001                                                     T               2         vind (tangential) at blade 3, node 5, m/s
         87   -2.113397122034E+000                                                     T               2         vind (axial) at blade 3, node 6, m/s
         88    6.155203453481E-001                                                     T               2         vind (tangential) at blade 3, node 6, m/s
         89   -1.875098016724E+000                                                     T               2         vind (axial) at blade 3, node 7, m/s
         90    4.512499711303E-001                                                     T               2         vind (tangential) at blade 3, node 7, m/s
         91   -1.891400110944E+000                                                     T               2         vind (axial) at blade 3, node 8, m/s
         92    3.741915572382E-001                                                     T               2         vind (tangential) at blade 3, node 8, m/s
         93   -2.274152716159E+000                                                     T               2         vind (axial) at blade 3, node 9, m/s
         94    3.560316169627E-001                                                     T               2         vind (tangential) at blade 3, node 9, m/s
         95   -2.432524911271E+000                                                     T               2         vind (axial) at blade 3, node 10, m/s
         96    3.189590317973E-001                                                     T               2         vind (tangential) at blade 3, node 10, m/s
         97   -2.994735432102E+000                                                     T               2         vind (axial) at blade 3, node 11, m/s
         98    3.058582822338E-001                                                     T               2         vind (tangential) at blade 3, node 11, m/s
         99   -3.418988026467E+000                                                     T               2         vind (axial) at blade 3, node 12, m/s
        100    2.830993396688E-001                                                     T               2         vind (tangential) at blade 3, node 12, m/s
        101   -3.398818498424E+000                                                     T               2         vind (axial) at blade 3, node 13, m/s
        102    2.502273719231E-001                                                     T               2         vind (tangential) at blade 3, node 13, m/s
        103   -3.672126138197E+000                                                     T               2         vind (axial) at blade 3, node 14, m/s
        104    2.314873302547E-001                                                     T               2         vind (tangential) at blade 3, node 14, m/s
        105   -3.986074201703E+000                                                     T               2         vind (axial) at blade 3, node 15, m/s
        106    2.144059791692E-001                                                     T               2         vind (tangential) at blade 3, node 15, m/s
        107   -4.104348718005E+000                                                     T               2         vind (axial) at blade 3, node 16, m/s
        108    2.067860155480E-001                                                     T               2         vind (tangential) at blade 3, node 16, m/s
        109   -4.090734265956E+000                                                     T               2         vind (axial) at blade 3, node 17, m/s
        110    2.021767932746E-001                                                     T               2         vind (tangential) at blade 3, node 17, m/s
        111   -3.726756400457E+000                                                     T               2         vind (axial) at blade 3, node 18, m/s
        112    1.712191335515E-001                                                     T               2         vind (tangential) at blade 3, node 18, m/s
        113   -6.339612542474E+000                                                     T               2         vind (axial) at blade 3, node 19, m/s
        114    0.000000000000E+000                                                     T               2         vind (tangential) at blade 3, node 19, m/s
        115   -3.176054499078E+000                                                     T               2         First time derivative of vind (axial) at blade 1, node 1, m/s/s
        116    0.000000000000E+000                                                     T               2         First time derivative of vind (tangential) at blade 1, node 1, m/s/s
        117    0.000000000000E+000                                                     T               2         First time derivative of vind (axial) at blade 1, node 2, m/s/s
        118    0.000000000000E+000                                                     T               2         First time derivative of vind (tangential) at blade 1, node 2, m/s/s
        119    0.000000000000E+000                                                     T               2         First time derivative of vind (axial) at blade 1, node 3, m/s/s
        120    0.000000000000E+000                                                     T               2         First time derivative of vind (tangential) at blade 1, node 3, m/s/s
        121    0.000000000000E+000                                                     T               2         First time derivative of vind (axial) at blade 1, node 4, m/s/s
        122    0.000000000000E+000                                                     T               2         First time derivative of vind (tangential) at blade 1, node 4, m/s/s
        123   -8.915979420918E-001                                                     T               2         First time derivative of vind (axial) at blade 1, node 5, m/s/s
        124    3.239721818459E-001                                                     T               2         First time derivative of vind (tangential) at blade 1, node 5, m/s/s
        125   -8.353395948521E-001                                                     T               2         First time derivative of vind (axial) at blade 1, node 6, m/s/s
        126    2.362239824900E-001                                                     T               2         First time derivative of vind (tangential) at blade 1, node 6, m/s/s
        127   -7.432511291746E-001                                                     T               2         First time derivative of vind (axial) at blade 1, node 7, m/s/s
        128    1.752512684684E-001                                                     T               2         First time derivative of vind (tangential) at blade 1, node 7, m/s/s
        129   -7.558777817284E-001                                                     T               2         First time derivative of vind (axial) at blade 1, node 8, m/s/s
        130    1.473552838573E-001                                                     T               2         First time derivative of vind (tangential) at blade 1, node 8, m/s/s
        131   -9.174752514508E-001                                                     T               2         First time derivative of vind (axial) at blade 1, node 9, m/s/s
        132    1.421161767457E-001                                                     T               2         First time derivative of vind (tangential) at blade 1, node 9, m/s/s
        133   -9.852401122331E-001                                                     T               2         First time derivative of vind (axial) at blade 1, node 10, m/s/s
        134    1.285507992790E-001                                                     T               2         First time derivative of vind (tangential) at blade 1, node 10, m/s/s
        135   -1.215187791703E+000                                                     T               2         First time derivative of vind (axial) at blade 1, node 11, m/s/s
        136    1.244801677286E-001                                                     T               2         First time derivative of vind (tangential) at blade 1, node 11, m/s/s
        137   -1.388001104719E+000                                                     T               2         First time derivative of vind (axial) at blade 1, node 12, m/s/s
        138    1.164114292739E-001                                                     T               2         First time derivative of vind (tangential) at blade 1, node 12, m/s/s
        139   -1.377541526282E+000                                                     T               2         First time derivative of vind (axial) at blade 1, node 13, m/s/s
        140    1.041397122428E-001                                                     T               2         First time derivative of vind (tangential) at blade 1, node 13, m/s/s
        141   -1.488098050857E+000                                                     T               2         First time derivative of vind (axial) at blade 1, node 14, m/s/s
        142    9.759436093458E-002                                                     T               2         First time derivative of vind (tangential) at blade 1, node 14, m/s/s
        143   -1.612214492346E+000                                                     T               2         First time derivative of vind (axial) at blade 1, node 15, m/s/s
        144    9.182921352996E-002                                                     T               2         First time derivative of vind (tangential) at blade 1, node 15, m/s/s
        145   -1.697190913828E+000                                                     T               2         First time derivative of vind (axial) at blade 1, node 16, m/s/s
        146    8.902782047638E-002                                                     T               2         First time derivative of vind (tangential) at blade 1, node 16, m/s/s
        147   -1.731997647570E+000                                                     T               2         First time derivative of vind (axial) at blade 1, node 17, m/s/s
        148    8.744133716452E-002                                                     T               2         First time derivative of vind (tangential) at blade 1, node 17, m/s/s
        149   -1.630112203032E+000                                                     T               2         First time derivative of vind (axial) at blade 1, node 18, m/s/s
        150    8.423760270491E-002                                                     T               2         First time derivative of vind (tangential) at blade 1, node 18, m/s/s
        151   -2.832348473389E+000                                                     T               2         First time derivative of vind (axial) at blade 1, node 19, m/s/s
        152    0.000000000000E+000                                                     T               2         First time derivative of vind (tangential) at blade 1, node 19, m/s/s
        153   -3.108757995132E+000                                                     T               2         First time derivative of vind (axial) at blade 2, node 1, m/s/s
        154    0.000000000000E+000                                                     T               2         First time derivative of vind (tangential) at blade 2, node 1, m/s/s
        155    0.000000000000E+000                                                     T               2         First time derivative of vind (axial) at blade 2, node 2, m/s/s
        156    0.000000000000E+000                                                     T               2         First time derivative of vind (tangential) at blade 2, node 2, m/s/s
        157    0.000000000000E+000                                                     T               2         First time derivative of vind (axial) at blade 2, node 3, m/s/s
        158    0.000000000000E+000                                                     T               2         First time derivative of vind (tangential) at blade 2, node 3, m/s/s
        159    0.000000000000E+000                                                     T               2         First time derivative of vind (axial) at blade 2, node 4, m/s/s
        160    0.000000000000E+000                                                     T               2         First time derivative of vind (tangential) at blade 2, node 4, m/s/s
        161   -8.860548260515E-001                                                     T               2         First time derivative of vind (axial) at blade 2, node 5, m/s/s
        162    3.118577552120E-001                                                     T               2         First time derivative of vind (tangential) at blade 2, node 5, m/s/s
        163   -8.275142972503E-001                                                     T               2         First time derivative of vind (axial) at blade 2, node 6, m/s/s
        164    2.294072161762E-001                                                     T               2         First time derivative of vind (tangential) at blade 2, node 6, m/s/s
        165   -7.369793046426E-001                                                     T               2         First time derivative of vind (axial) at blade 2, node 7, m/s/s
        166    1.711251725268E-001                                                     T               2         First time derivative of vind (tangential) at blade 2, node 7, m/s/s
        167   -7.524731666744E-001                                                     T               2         First time derivative of vind (axial) at blade 2, node 8, m/s/s
        168    1.447852486148E-001                                                     T               2         First time derivative of vind (tangential) at blade 2, node 8, m/s/s
        169   -9.190633288059E-001                                                     T               2         First time derivative of vind (axial) at blade 2, node 9, m/s/s
        170    1.406219780164E-001                                                     T               2         First time derivative of vind (tangential) at blade 2, node 9, m/s/s
        171   -9.884387249674E-001                                                     T               2         First time derivative of vind (axial) at blade 2, node 10, m/s/s
        172    1.276240591832E-001                                                     T               2         First time derivative of vind (tangential) at blade 2, node 10, m/s/s
        173   -1.222232139952E+000                                                     T               2         First time derivative of vind (axial) at blade 2, node 11, m/s/s
        174    1.239818558439E-001                                                     T               2         First time derivative of vind (tangential) at blade 2, node 11, m/s/s
        175   -1.395608403888E+000                                                     T               2         First time derivative of vind (axial) at blade 2, node 12, m/s/s
        176    1.162252585416E-001                                                     T               2         First time derivative of vind (tangential) at blade 2, node 12, m/s/s
        177   -1.383221440867E+000                                                     T               2         First time derivative of vind (axial) at blade 2, node 13, m/s/s