
Linearized model: Predictions were generated on 14-Feb-2024 at 16:50:13 using OpenFAST, compiled as a 64-bit application using double precision at commit v3.5.2-dirty
 linked with  NWTC Subroutine Library; ElastoDyn; InflowWind; AeroDyn; ServoDyn

Description from the FAST input file: NREL 5.0 MW Baseline Wind Turbine (Onshore), Linearization with AD15 + ED

Simulation information:
   Simulation time:                     1.0000 s
   Rotor Speed:                         1.2799 rad/s
   Azimuth:                             1.2699 rad
   Wind Speed:                          8.0000 m/s
   Number of continuous states:       228
   Number of discrete states:           0
   Number of constraint states:         0
   Number of inputs:                   57
   Number of outputs:                   0
   Jacobians included in this file?    No

Order of continuous states:
   Row/Column Operating Point                     Rotating Frame? Derivative Order Description
   ---------- ---------------                     --------------- ---------------- -----------
          1   -7.915E+00                                 T               2         vind (axial) at blade 1, node 1, m/s
          2    0.000E+00                                 T               2         vind (tangential) at blade 1, node 1, m/s
          3    0.000E+00                                 T               2         vind (axial) at blade 1, node 2, m/s
          4    0.000E+00                                 T               2         vind (tangential) at blade 1, node 2, m/s
          5    0.000E+00                                 T               2         vind (axial) at blade 1, node 3, m/s
          6    0.000E+00                                 T               2         vind (tangential) at blade 1, node 3, m/s
          7    0.000E+00                                 T               2         vind (axial) at blade 1, node 4, m/s
          8    0.000E+00                                 T               2         vind (tangential) at blade 1, node 4, m/s
          9   -2.218E+00                                 T               2         vind (axial) at blade 1, node 5, m/s
         10    8.015E-01                                 T               2         vind (tangential) at blade 1, node 5, m/s
         11   -2.072E+00                                 T               2         vind (axial) at blade 1, node 6, m/s
         12    5.830E-01                                 T               2         vind (tangential) at blade 1, node 6, m/s
         13   -1.839E+00                                 T               2         vind (axial) at blade 1, node 7, m/s
         14    4.311E-01                                 T               2         vind (tangential) at blade 1, node 7, m/s
         15   -1.868E+00                                 T               2         vind (axial) at blade 1, node 8, m/s
         16    3.614E-01                                 T               2         vind (tangential) at blade 1, node 8, m/s
         17   -2.270E+00                                 T               2         vind (axial) at blade 1, node 9, m/s
         18    3.478E-01                                 T               2         vind (tangential) at blade 1, node 9, m/s
         19   -2.435E+00                                 T               2         vind (axial) at blade 1, node 10, m/s
         20    3.128E-01                                 T               2         vind (tangential) at blade 1, node 10, m/s
         21   -3.016E+00                                 T               2         vind (axial) at blade 1, node 11, m/s
         22    3.007E-01                                 T               2         vind (tangential) at blade 1, node 11, m/s
         23   -3.447E+00                                 T               2         vind (axial) at blade 1, node 12, m/s
         24    2.785E-01                                 T               2         vind (tangential) at blade 1, node 12, m/s
         25   -3.433E+00                                 T               2         vind (axial) at blade 1, node 13, m/s
         26    2.459E-01                                 T               2         vind (tangential) at blade 1, node 13, m/s
         27   -3.711E+00                                 T               2         vind (axial) at blade 1, node 14, m/s
         28    2.268E-01                                 T               2         vind (tangential) at blade 1, node 14, m/s
         29   -4.048E+00                                 T               2         vind (axial) at blade 1, node 15, m/s
         30    2.085E-01                                 T               2         vind (tangential) at blade 1, node 15, m/s
         31   -4.235E+00                                 T               2         vind (axial) at blade 1, node 16, m/s
         32    1.991E-01                                 T               2         vind (tangential) at blade 1, node 16, m/s
         33   -4.242E+00                                 T               2         vind (axial) at blade 1, node 17, m/s
         34    1.927E-01                                 T               2         vind (tangential) at blade 1, node 17, m/s
         35   -3.846E+00                                 T               2         vind (axial) at blade 1, node 18, m/s
         36    1.802E-01                                 T               2         vind (tangential) at blade 1, node 18, m/s
         37   -6.080E+00                                 T               2         vind (axial) at blade 1, node 19, m/s
         38    0.000E+00                                 T               2         vind (tangential) at blade 1, node 19, m/s
         39   -7.714E+00                                 T               2         vind (axial) at blade 2, node 1, m/s
         40    0.000E+00                                 T               2         vind (tangential) at blade 2, node 1, m/s
         41    0.000E+00                                 T               2         vind (axial) at blade 2, node 2, m/s
         42    0.000E+00                                 T               2         vind (tangential) at blade 2, node 2, m/s
         43    0.000E+00                                 T               2         vind (axial) at blade 2, node 3, m/s
         44    0.000E+00                                 T               2         vind (tangential) at blade 2, node 3, m/s
         45    0.000E+00                                 T               2         vind (axial) at blade 2, node 4, m/s
         46    0.000E+00                                 T               2         vind (tangential) at blade 2, node 4, m/s
         47   -2.194E+00                                 T               2         vind (axial) at blade 2, node 5, m/s
         48    7.688E-01                                 T               2         vind (tangential) at blade 2, node 5, m/s
         49   -2.048E+00                                 T               2         vind (axial) at blade 2, node 6, m/s
         50    5.655E-01                                 T               2         vind (tangential) at blade 2, node 6, m/s
         51   -1.823E+00                                 T               2         vind (axial) at blade 2, node 7, m/s
         52    4.214E-01                                 T               2         vind (tangential) at blade 2, node 7, m/s
         53   -1.861E+00                                 T               2         vind (axial) at blade 2, node 8, m/s
         54    3.562E-01                                 T               2         vind (tangential) at blade 2, node 8, m/s
         55   -2.276E+00                                 T               2         vind (axial) at blade 2, node 9, m/s
         56    3.458E-01                                 T               2         vind (tangential) at blade 2, node 9, m/s
         57   -2.446E+00                                 T               2         vind (axial) at blade 2, node 10, m/s
         58    3.128E-01                                 T               2         vind (tangential) at blade 2, node 10, m/s
         59   -3.031E+00                                 T               2         vind (axial) at blade 2, node 11, m/s
         60    3.025E-01                                 T               2         vind (tangential) at blade 2, node 11, m/s
         61   -3.458E+00                                 T               2         vind (axial) at blade 2, node 12, m/s
         62    2.818E-01                                 T               2         vind (tangential) at blade 2, node 12, m/s
         63   -3.427E+00                                 T               2         vind (axial) at blade 2, node 13, m/s
         64    2.505E-01                                 T               2         vind (tangential) at blade 2, node 13, m/s
         65   -3.680E+00                                 T               2         vind (axial) at blade 2, node 14, m/s
         66    2.328E-01                                 T               2         vind (tangential) at blade 2, node 14, m/s
         67   -3.935E+00                                 T               2         vind (axial) at blade 2, node 15, m/s
         68    2.172E-01                                 T               2         vind (tangential) at blade 2, node 15, m/s
         69   -3.975E+00                                 T               2         vind (axial) at blade 2, node 16, m/s
         70    2.107E-01                                 T               2         vind (tangential) at blade 2, node 16, m/s
         71   -3.923E+00                                 T               2         vind (axial) at blade 2, node 17, m/s
         72    1.873E-01                                 T               2         vind (tangential) at blade 2, node 17, m/s
         73   -3.569E+00                                 T               2         vind (axial) at blade 2, node 18, m/s
         74    1.714E-01                                 T               2         vind (tangential) at blade 2, node 18, m/s
         75   -6.370E+00                                 T               2         vind (axial) at blade 2, node 19, m/s
         76    0.000E+00                                 T               2         vind (tangential) at blade 2, node 19, m/s
         77   -7.847E+00                                 T               2         vind (axial) at blade 3, node 1, m/s
         78    0.000E+00                                 T               2         vind (tangential) at blade 3, node 1, m/s
         79    0.000E+00                                 T               2         vind (axial) at blade 3, node 2, m/s
         80    0.000E+00                                 T               2         vind (tangential) at blade 3, node 2, m/s
         81    0.000E+00                                 T               2         vind (axial) at blade 3, node 3, m/s
         82    0.000E+00                                 T               2         vind (tangential) at blade 3, node 3, m/s
         83    0.000E+00                                 T               2         vind (axial) at blade 3, node 4, m/s
         84    0.000E+00                                 T               2         vind (tangential) at blade 3, node 4, m/s
         85   -2.237E+00                                 T               2         vind (axial) at blade 3, node 5, m/s
         86    8.526E-01                                 T               2         vind (tangential) at blade 3, node 5, m/s
         87   -2.113E+00                                 T               2         vind (axial) at blade 3, node 6, m/s
         88    6.154E-01                                 T               2         vind (tangential) at blade 3, node 6, m/s
         89   -1.875E+00                                 T               2         vind (axial) at blade 3, node 7, m/s
         90    4.511E-01                                 T               2         vind (tangential) at blade 3, node 7, m/s
         91   -1.891E+00                                 T               2         vind (axial) at blade 3, node 8, m/s
         92    3.741E-01                                 T               2         vind (tangential) at blade 3, node 8, m/s
         93   -2.274E+00                                 T               2         vind (axial) at blade 3, node 9, m/s
         94    3.560E-01                                 T               2         vind (tangential) at blade 3, node 9, m/s
         95   -2.432E+00                                 T               2         vind (axial) at blade 3, node 10, m/s
         96    3.189E-01                                 T               2         vind (tangential) at blade 3, node 10, m/s
         97   -2.995E+00                                 T               2         vind (axial) at blade 3, node 11, m/s
         98    3.058E-01                                 T               2         vind (tangential) at blade 3, node 11, m/s
         99   -3.419E+00                                 T               2         vind (axial) at blade 3, node 12, m/s
        100    2.831E-01                                 T               2         vind (tangential) at blade 3, node 12, m/s
        101   -3.399E+00                                 T               2         vind (axial) at blade 3, node 13, m/s
        102    2.502E-01                                 T               2         vind (tangential) at blade 3, node 13, m/s
        103   -3.672E+00                                 T               2         vind (axial) at blade 3, node 14, m/s
        104    2.315E-01                                 T               2         vind (tangential) at blade 3, node 14, m/s
        105   -3.987E+00                                 T               2         vind (axial) at blade 3, node 15, m/s
        106    2.145E-01                                 T               2         vind (tangential) at blade 3, node 15, m/s
        107   -4.110E+00                                 T               2         vind (axial) at blade 3, node 16, m/s
        108    2.068E-01                                 T               2         vind (tangential) at blade 3, node 16, m/s
        109   -4.097E+00                                 T               2         vind (axial) at blade 3, node 17, m/s
        110    2.023E-01                                 T               2         vind (tangential) at blade 3, node 17, m/s
        111   -3.737E+00                                 T               2         vind (axial) at blade 3, node 18, m/s
        112    1.715E-01                                 T               2         vind (tangential) at blade 3, node 18, m/s
        113   -6.350E+00                                 T               2         vind (axial) at blade 3, node 19, m/s
        114    0.000E+00                                 T               2         vind (tangential) at blade 3, node 19, m/s
        115   -3.176E+00                                 T               2         First time derivative of vind (axial) at blade 1, node 1, m/s/s
        116    0.000E+00                                 T               2         First time derivative of vind (tangential) at blade 1, node 1, m/s/s
        117    0.000E+00                                 T               2         First time derivative of vind (axial) at blade 1, node 2, m/s/s
        118    0.000E+00                                 T               2         First time derivative of vind (tangential) at blade 1, node 2, m/s/s
        119    0.000E+00                                 T               2         First time derivative of vind (axial) at blade 1, node 3, m/s/s
        120    0.000E+00                                 T               2         First time derivative of vind (tangential) at blade 1, node 3, m/s/s
        121    0.000E+00                                 T               2         First time derivative of vind (axial) at blade 1, node 4, m/s/s
        122    0.000E+00                                 T               2         First time derivative of vind (tangential) at blade 1, node 4, m/s/s
        123   -8.915E-01                                 T               2         First time derivative of vind (axial) at blade 1, node 5, m/s/s
        124    3.239E-01                                 T               2         First time derivative of vind (tangential) at blade 1, node 5, m/s/s
        125   -8.352E-01                                 T               2         First time derivative of vind (axial) at blade 1, node 6, m/s/s
        126    2.362E-01                                 T               2         First time derivative of vind (tangential) at blade 1, node 6, m/s/s
        127   -7.431E-01                                 T               2         First time derivative of vind (axial) at blade 1, node 7, m/s/s
        128    1.752E-01                                 T               2         First time derivative of vind (tangential) at blade 1, node 7, m/s/s
        129   -7.558E-01                                 T               2         First time derivative of vind (axial) at blade 1, node 8, m/s/s
        130    1.473E-01                                 T               2         First time derivative of vind (tangential) at blade 1, node 8, m/s/s
        131   -9.174E-01                                 T               2         First time derivative of vind (axial) at blade 1, node 9, m/s/s
        132    1.421E-01                                 T               2         First time derivative of vind (tangential) at blade 1, node 9, m/s/s
        133   -9.852E-01                                 T               2         First time derivative of vind (axial) at blade 1, node 10, m/s/s
        134    1.285E-01                                 T               2         First time derivative of vind (tangential) at blade 1, node 10, m/s/s
        135   -1.215E+00                                 T               2         First time derivative of vind (axial) at blade 1, node 11, m/s/s
        136    1.245E-01                                 T               2         First time derivative of vind (tangential) at blade 1, node 11, m/s/s
        137   -1.388E+00                                 T               2         First time derivative of vind (axial) at blade 1, node 12, m/s/s
        138    1.164E-01                                 T               2         First time derivative of vind (tangential) at blade 1, node 12, m/s/s
        139   -1.378E+00                                 T               2         First time derivative of vind (axial) at blade 1, node 13, m/s/s
        140    1.041E-01                                 T               2         First time derivative of vind (tangential) at blade 1, node 13, m/s/s
        141   -1.488E+00                                 T               2         First time derivative of vind (axial) at blade 1, node 14, m/s/s
        142    9.757E-02                                 T               2         First time derivative of vind (tangential) at blade 1, node 14, m/s/s
        143   -1.612E+00                                 T               2         First time derivative of vind (axial) at blade 1, node 15, m/s/s
        144    9.182E-02                                 T               2         First time derivative of vind (tangential) at blade 1, node 15, m/s/s
        145   -1.697E+00                                 T               2         First time derivative of vind (axial) at blade 1, node 16, m/s/s
        146    8.902E-02                                 T               2         First time derivative of vind (tangential) at blade 1, node 16, m/s/s
        147   -1.732E+00                                 T               2         First time derivative of vind (axial) at blade 1, node 17, m/s/s
        148    8.743E-02                                 T               2         First time derivative of vind (tangential) at blade 1, node 17, m/s/s
        149   -1.631E+00                                 T               2         First time derivative of vind (axial) at blade 1, node 18, m/s/s
        150    8.420E-02                                 T               2         First time derivative of vind (tangential) at blade 1, node 18, m/s/s
        151   -2.832E+00                                 T               2         First time derivative of vind (axial) at blade 1, node 19, m/s/s
        152    0.000E+00                                 T               2         First time derivative of vind (tangential) at blade 1, node 19, m/s/s
        153   -3.109E+00                                 T               2         First time derivative of vind (axial) at blade 2, node 1, m/s/s
        154    0.000E+00                                 T               2         First time derivative of vind (tangential) at blade 2, node 1, m/s/s
        155    0.000E+00                                 T               2         First time derivative of vind (axial) at blade 2, node 2, m/s/s
        156    0.000E+00                                 T               2         First time derivative of vind (tangential) at blade 2, node 2, m/s/s
        157    0.000E+00                                 T               2         First time derivative of vind (axial) at blade 2, node 3, m/s/s
        158    0.000E+00                                 T               2         First time derivative of vind (tangential) at blade 2, node 3, m/s/s
        159    0.000E+00                                 T               2         First time derivative of vind (axial) at blade 2, node 4, m/s/s
        160    0.000E+00                                 T               2         First time derivative of vind (tangential) at blade 2, node 4, m/s/s
        161   -8.860E-01                                 T               2         First time derivative of vind (axial) at blade 2, node 5, m/s/s
        162    3.118E-01                                 T               2         First time derivative of vind (tangential) at blade 2, node 5, m/s/s
        163   -8.275E-01                                 T               2         First time derivative of vind (axial) at blade 2, node 6, m/s/s
        164    2.294E-01                                 T               2         First time derivative of vind (tangential) at blade 2, node 6, m/s/s
        165   -7.369E-01                                 T               2         First time derivative of vind (axial) at blade 2, node 7, m/s/s
        166    1.711E-01                                 T               2         First time derivative of vind (tangential) at blade 2, node 7, m/s/s
        167   -7.524E-01                                 T               2         First time derivative of vind (axial) at blade 2, node 8, m/s/s
        168    1.448E-01                                 T               2         First time derivative of vind (tangential) at blade 2, node 8, m/s/s
        169   -9.190E-01                                 T               2         First time derivative of vind (axial) at blade 2, node 9, m/s/s
        170    1.406E-01                                 T               2         First time derivative of vind (tangential) at blade 2, node 9, m/s/s
        171   -9.884E-01                                 T               2         First time derivative of vind (axial) at blade 2, node 10, m/s/s
        172    1.276E-01                                 T               2         First time derivative of vind (tangential) at blade 2, node 10, m/s/s
        173   -1.222E+00                                 T               2         First time derivative of vind (axial) at blade 2, node 11, m/s/s
        174    1.240E-01                                 T               2         First time derivative of vind (tangential) at blade 2, node 11, m/s/s
        175   -1.396E+00                                 T               2         First time derivative of vind (axial) at blade 2, node 12, m/s/s
        176    1.162E-01                                 T               2         First time derivative of vind (tangential) at blade 2, node 12, m/s/s
        177   -1.383E+00                                 T               2         First time derivative of vind (axial) at blade 2, node 13, m/s/s
        178    1.042E-01                                 T               2         First time derivative of vind (tangential) at blade 2, node 13, m/s/s
        179   -1.490E+00                                 T               2         First time derivative of vind (axial) at blade 2, node 14, m/s/s
        180    9.783E-02                                 T               2         First time derivative of vind (tangential) at blade 2, node 14, m/s/s
        181   -1.598E+00                                 T               2         First time derivative of vind (axial) at blade 2, node 15, m/s/s
        182    9.250E-02                                 T               2         First time derivative of vind (tangential) at blade 2, node 15, m/s/s
        183   -1.651E+00                                 T               2         First time derivative of vind (axial) at blade 2, node 16, m/s/s
        184    9.000E-02                                 T               2         First time derivative of vind (tangential) at blade 2, node 16, m/s/s
        185   -1.671E+00                                 T               2         First time derivative of vind (axial) at blade 2, node 17, m/s/s
        186    8.407E-02                                 T               2         First time derivative of vind (tangential) at blade 2, node 17, m/s/s
        187   -1.566E+00                                 T               2         First time derivative of vind (axial) at blade 2, node 18, m/s/s
        188    7.926E-02                                 T               2         First time derivative of vind (tangential) at blade 2, node 18, m/s/s
        189   -2.822E+00                                 T               2         First time derivative of vind (axial) at blade 2, node 19, m/s/s
        190    0.000E+00                                 T               2         First time derivative of vind (tangential) at blade 2, node 19, m/s/s
        191   -3.146E+00                                 T               2         First time derivative of vind (axial) at blade 3, node 1, m/s/s
        192    0.000E+00                                 T               2         First time derivative of vind (tangential) at blade 3, node 1, m/s/s
        193    0.000E+00                                 T               2         First time derivative of vind (axial) at blade 3, node 2, m/s/s
        194    0.000E+00                                 T               2         First time derivative of vind (tangential) at blade 3, node 2, m/s/s
        195    0.000E+00                                 T               2         First time derivative of vind (axial) at blade 3, node 3, m/s/s
        196    0.000E+00                                 T               2         First time derivative of vind (tangential) at blade 3, node 3, m/s/s
        197    0.000E+00                                 T               2         First time derivative of vind (axial) at blade 3, node 4, m/s/s
        198    0.000E+00                                 T               2         First time derivative of vind (tangential) at blade 3, node 4, m/s/s
        199   -8.989E-01                                 T               2         First time derivative of vind (axial) at blade 3, node 5, m/s/s
        200    3.441E-01                                 T               2         First time derivative of vind (tangential) at blade 3, node 5, m/s/s
        201   -8.510E-01                                 T               2         First time derivative of vind (axial) at blade 3, node 6, m/s/s
        202    2.489E-01                                 T               2         First time derivative of vind (tangential) at blade 3, node 6, m/s/s
        203   -7.565E-01                                 T               2         First time derivative of vind (axial) at blade 3, node 7, m/s/s
        204    1.829E-01                                 T               2         First time derivative of vind (tangential) at blade 3, node 7, m/s/s
        205   -7.640E-01                                 T               2         First time derivative of vind (axial) at blade 3, node 8, m/s/s
        206    1.521E-01                                 T               2         First time derivative of vind (tangential) at blade 3, node 8, m/s/s
        207   -9.176E-01                                 T               2         First time derivative of vind (axial) at blade 3, node 9, m/s/s
        208    1.450E-01                                 T               2         First time derivative of vind (tangential) at blade 3, node 9, m/s/s
        209   -9.822E-01                                 T               2         First time derivative of vind (axial) at blade 3, node 10, m/s/s
        210    1.305E-01                                 T               2         First time derivative of vind (tangential) at blade 3, node 10, m/s/s
        211   -1.205E+00                                 T               2         First time derivative of vind (axial) at blade 3, node 11, m/s/s
        212    1.259E-01                                 T               2         First time derivative of vind (tangential) at blade 3, node 11, m/s/s
        213   -1.375E+00                                 T               2         First time derivative of vind (axial) at blade 3, node 12, m/s/s