
Linearized model: Predictions were generated on 04-Mar-2024 at 11:06:45 using OpenFAST, compiled on Mar  4 2024 at 10:16:10 as a 64-bit application using double precision at commit v3.5.2-982-g1e454dbe
 linked with  NWTC Subroutine Library; ElastoDyn; InflowWind; AeroDyn; ServoDyn

Description from the FAST input file: NREL 5.0 MW Baseline Wind Turbine (Onshore), Linearization with AD15 + ED

Simulation information:
   Simulation time:                     1.0000 s
   Rotor Speed:                         1.2799 rad/s
   Azimuth:                             1.2699 rad
   Wind Speed:                          8.0000 m/s
   Number of continuous states:       228
   Number of discrete states:           0
   Number of constraint states:         0
   Number of inputs:                   60
   Number of outputs:                   0
   Jacobians included in this file?    No

Order of continuous states:
   Row/Column Operating Point                                                   Rotating Frame? Derivative Order Description
   ---------- ---------------                                                   --------------- ---------------- -----------
          1   -7.915388158677E+000                                                     T               2         vind (axial) at blade 1, node 1, m/s
          2    0.000000000000E+000                                                     T               2         vind (tangential) at blade 1, node 1, m/s
          3    0.000000000000E+000                                                     T               2         vind (axial) at blade 1, node 2, m/s
          4    0.000000000000E+000                                                     T               2         vind (tangential) at blade 1, node 2, m/s
          5    0.000000000000E+000                                                     T               2         vind (axial) at blade 1, node 3, m/s
          6    0.000000000000E+000                                                     T               2         vind (tangential) at blade 1, node 3, m/s
          7    0.000000000000E+000                                                     T               2         vind (axial) at blade 1, node 4, m/s
          8    0.000000000000E+000                                                     T               2         vind (tangential) at blade 1, node 4, m/s
          9   -2.217524177896E+000                                                     T               2         vind (axial) at blade 1, node 5, m/s
         10    8.015425026852E-001                                                     T               2         vind (tangential) at blade 1, node 5, m/s
         11   -2.072355658293E+000                                                     T               2         vind (axial) at blade 1, node 6, m/s
         12    5.830412335204E-001                                                     T               2         vind (tangential) at blade 1, node 6, m/s
         13   -1.839136985352E+000                                                     T               2         vind (axial) at blade 1, node 7, m/s
         14    4.311432962743E-001                                                     T               2         vind (tangential) at blade 1, node 7, m/s
         15   -1.867570254800E+000                                                     T               2         vind (axial) at blade 1, node 8, m/s
         16    3.613928575636E-001                                                     T               2         vind (tangential) at blade 1, node 8, m/s
         17   -2.270010063828E+000                                                     T               2         vind (axial) at blade 1, node 9, m/s
         18    3.477764578629E-001                                                     T               2         vind (tangential) at blade 1, node 9, m/s
         19   -2.435350670250E+000                                                     T               2         vind (axial) at blade 1, node 10, m/s
         20    3.128184291662E-001                                                     T               2         vind (tangential) at blade 1, node 10, m/s
         21   -3.016255188911E+000                                                     T               2         vind (axial) at blade 1, node 11, m/s
         22    3.007284159408E-001                                                     T               2         vind (tangential) at blade 1, node 11, m/s
         23   -3.446924853888E+000                                                     T               2         vind (axial) at blade 1, node 12, m/s
         24    2.785419036642E-001                                                     T               2         vind (tangential) at blade 1, node 12, m/s
         25   -3.432848635992E+000                                                     T               2         vind (axial) at blade 1, node 13, m/s
         26    2.458896562161E-001                                                     T               2         vind (tangential) at blade 1, node 13, m/s
         27   -3.710856023779E+000                                                     T               2         vind (axial) at blade 1, node 14, m/s
         28    2.268482252102E-001                                                     T               2         vind (tangential) at blade 1, node 14, m/s
         29   -4.048444138238E+000                                                     T               2         vind (axial) at blade 1, node 15, m/s
         30    2.084594417053E-001                                                     T               2         vind (tangential) at blade 1, node 15, m/s
         31   -4.235304441605E+000                                                     T               2         vind (axial) at blade 1, node 16, m/s
         32    1.991361968235E-001                                                     T               2         vind (tangential) at blade 1, node 16, m/s
         33   -4.242054641181E+000                                                     T               2         vind (axial) at blade 1, node 17, m/s
         34    1.927460561300E-001                                                     T               2         vind (tangential) at blade 1, node 17, m/s
         35   -3.845845466257E+000                                                     T               2         vind (axial) at blade 1, node 18, m/s
         36    1.801551275085E-001                                                     T               2         vind (tangential) at blade 1, node 18, m/s
         37   -6.079911883020E+000                                                     T               2         vind (axial) at blade 1, node 19, m/s
         38    0.000000000000E+000                                                     T               2         vind (tangential) at blade 1, node 19, m/s
         39   -7.714148901892E+000                                                     T               2         vind (axial) at blade 2, node 1, m/s
         40    0.000000000000E+000                                                     T               2         vind (tangential) at blade 2, node 1, m/s
         41    0.000000000000E+000                                                     T               2         vind (axial) at blade 2, node 2, m/s
         42    0.000000000000E+000                                                     T               2         vind (tangential) at blade 2, node 2, m/s
         43    0.000000000000E+000                                                     T               2         vind (axial) at blade 2, node 3, m/s
         44    0.000000000000E+000                                                     T               2         vind (tangential) at blade 2, node 3, m/s
         45    0.000000000000E+000                                                     T               2         vind (axial) at blade 2, node 4, m/s
         46    0.000000000000E+000                                                     T               2         vind (tangential) at blade 2, node 4, m/s
         47   -2.193983609099E+000                                                     T               2         vind (axial) at blade 2, node 5, m/s
         48    7.688295112214E-001                                                     T               2         vind (tangential) at blade 2, node 5, m/s
         49   -2.048215001460E+000                                                     T               2         vind (axial) at blade 2, node 6, m/s
         50    5.654686757470E-001                                                     T               2         vind (tangential) at blade 2, node 6, m/s
         51   -1.822758934023E+000                                                     T               2         vind (axial) at blade 2, node 7, m/s
         52    4.214161946798E-001                                                     T               2         vind (tangential) at blade 2, node 7, m/s
         53   -1.860961824734E+000                                                     T               2         vind (axial) at blade 2, node 8, m/s
         54    3.562393324153E-001                                                     T               2         vind (tangential) at blade 2, node 8, m/s
         55   -2.276224057546E+000                                                     T               2         vind (axial) at blade 2, node 9, m/s
         56    3.457920486910E-001                                                     T               2         vind (tangential) at blade 2, node 9, m/s
         57   -2.446231015065E+000                                                     T               2         vind (axial) at blade 2, node 10, m/s
         58    3.128089883850E-001                                                     T               2         vind (tangential) at blade 2, node 10, m/s
         59   -3.031210901412E+000                                                     T               2         vind (axial) at blade 2, node 11, m/s
         60    3.025305792845E-001                                                     T               2         vind (tangential) at blade 2, node 11, m/s
         61   -3.458011726087E+000                                                     T               2         vind (axial) at blade 2, node 12, m/s
         62    2.818232889026E-001                                                     T               2         vind (tangential) at blade 2, node 12, m/s
         63   -3.426796858555E+000                                                     T               2         vind (axial) at blade 2, node 13, m/s
         64    2.504798217100E-001                                                     T               2         vind (tangential) at blade 2, node 13, m/s
         65   -3.680240183264E+000                                                     T               2         vind (axial) at blade 2, node 14, m/s
         66    2.328271759382E-001                                                     T               2         vind (tangential) at blade 2, node 14, m/s
         67   -3.935435068455E+000                                                     T               2         vind (axial) at blade 2, node 15, m/s
         68    2.172266426694E-001                                                     T               2         vind (tangential) at blade 2, node 15, m/s
         69   -3.974664629794E+000                                                     T               2         vind (axial) at blade 2, node 16, m/s
         70    2.107461536020E-001                                                     T               2         vind (tangential) at blade 2, node 16, m/s
         71   -3.923473987630E+000                                                     T               2         vind (axial) at blade 2, node 17, m/s
         72    1.873131763693E-001                                                     T               2         vind (tangential) at blade 2, node 17, m/s
         73   -3.568798768927E+000                                                     T               2         vind (axial) at blade 2, node 18, m/s
         74    1.713677496229E-001                                                     T               2         vind (tangential) at blade 2, node 18, m/s
         75   -6.369506249635E+000                                                     T               2         vind (axial) at blade 2, node 19, m/s
         76    0.000000000000E+000                                                     T               2         vind (tangential) at blade 2, node 19, m/s
         77   -7.846830637366E+000                                                     T               2         vind (axial) at blade 3, node 1, m/s
         78    0.000000000000E+000                                                     T               2         vind (tangential) at blade 3, node 1, m/s
         79    0.000000000000E+000                                                     T               2         vind (axial) at blade 3, node 2, m/s
         80    0.000000000000E+000                                                     T               2         vind (tangential) at blade 3, node 2, m/s
         81    0.000000000000E+000                                                     T               2         vind (axial) at blade 3, node 3, m/s
         82    0.000000000000E+000                                                     T               2         vind (tangential) at blade 3, node 3, m/s
         83    0.000000000000E+000                                                     T               2         vind (axial) at blade 3, node 4, m/s
         84    0.000000000000E+000                                                     T               2         vind (tangential) at blade 3, node 4, m/s
         85   -2.237245107637E+000                                                     T               2         vind (axial) at blade 3, node 5, m/s
         86    8.525786054937E-001                                                     T               2         vind (tangential) at blade 3, node 5, m/s
         87   -2.113077890986E+000                                                     T               2         vind (axial) at blade 3, node 6, m/s
         88    6.153741954717E-001                                                     T               2         vind (tangential) at blade 3, node 6, m/s
         89   -1.874782127869E+000                                                     T               2         vind (axial) at blade 3, node 7, m/s
         90    4.511353436030E-001                                                     T               2         vind (tangential) at blade 3, node 7, m/s
         91   -1.891109465507E+000                                                     T               2         vind (axial) at blade 3, node 8, m/s
         92    3.740999946206E-001                                                     T               2         vind (tangential) at blade 3, node 8, m/s
         93   -2.273918742819E+000                                                     T               2         vind (axial) at blade 3, node 9, m/s
         94    3.559572865870E-001                                                     T               2         vind (tangential) at blade 3, node 9, m/s
         95   -2.432347560119E+000                                                     T               2         vind (axial) at blade 3, node 10, m/s
         96    3.189003992299E-001                                                     T               2         vind (tangential) at blade 3, node 10, m/s
         97   -2.994676078787E+000                                                     T               2         vind (axial) at blade 3, node 11, m/s
         98    3.058134597797E-001                                                     T               2         vind (tangential) at blade 3, node 11, m/s
         99   -3.419034528131E+000                                                     T               2         vind (axial) at blade 3, node 12, m/s
        100    2.830734969645E-001                                                     T               2         vind (tangential) at blade 3, node 12, m/s
        101   -3.398991503961E+000                                                     T               2         vind (axial) at blade 3, node 13, m/s
        102    2.502247609174E-001                                                     T               2         vind (tangential) at blade 3, node 13, m/s
        103   -3.672425854289E+000                                                     T               2         vind (axial) at blade 3, node 14, m/s
        104    2.315133370696E-001                                                     T               2         vind (tangential) at blade 3, node 14, m/s
        105   -3.986967393584E+000                                                     T               2         vind (axial) at blade 3, node 15, m/s
        106    2.144544812135E-001                                                     T               2         vind (tangential) at blade 3, node 15, m/s
        107   -4.110265211124E+000                                                     T               2         vind (axial) at blade 3, node 16, m/s
        108    2.067717488196E-001                                                     T               2         vind (tangential) at blade 3, node 16, m/s
        109   -4.096500629001E+000                                                     T               2         vind (axial) at blade 3, node 17, m/s
        110    2.022773643875E-001                                                     T               2         vind (tangential) at blade 3, node 17, m/s
        111   -3.736687825826E+000                                                     T               2         vind (axial) at blade 3, node 18, m/s
        112    1.715018213366E-001                                                     T               2         vind (tangential) at blade 3, node 18, m/s
        113   -6.349690045743E+000                                                     T               2         vind (axial) at blade 3, node 19, m/s
        114    0.000000000000E+000                                                     T               2         vind (tangential) at blade 3, node 19, m/s
        115   -3.175832759059E+000                                                     T               2         First time derivative of vind (axial) at blade 1, node 1, m/s/s
        116    0.000000000000E+000                                                     T               2         First time derivative of vind (tangential) at blade 1, node 1, m/s/s
        117    0.000000000000E+000                                                     T               2         First time derivative of vind (axial) at blade 1, node 2, m/s/s
        118    0.000000000000E+000                                                     T               2         First time derivative of vind (tangential) at blade 1, node 2, m/s/s
        119    0.000000000000E+000                                                     T               2         First time derivative of vind (axial) at blade 1, node 3, m/s/s
        120    0.000000000000E+000                                                     T               2         First time derivative of vind (tangential) at blade 1, node 3, m/s/s
        121    0.000000000000E+000                                                     T               2         First time derivative of vind (axial) at blade 1, node 4, m/s/s
        122    0.000000000000E+000                                                     T               2         First time derivative of vind (tangential) at blade 1, node 4, m/s/s
        123   -8.915110420252E-001                                                     T               2         First time derivative of vind (axial) at blade 1, node 5, m/s/s
        124    3.239226070090E-001                                                     T               2         First time derivative of vind (tangential) at blade 1, node 5, m/s/s
        125   -8.352391560591E-001                                                     T               2         First time derivative of vind (axial) at blade 1, node 6, m/s/s
        126    2.361822160744E-001                                                     T               2         First time derivative of vind (tangential) at blade 1, node 6, m/s/s
        127   -7.431482596395E-001                                                     T               2         First time derivative of vind (axial) at blade 1, node 7, m/s/s
        128    1.752164255005E-001                                                     T               2         First time derivative of vind (tangential) at blade 1, node 7, m/s/s
        129   -7.557771028250E-001                                                     T               2         First time derivative of vind (axial) at blade 1, node 8, m/s/s
        130    1.473253201185E-001                                                     T               2         First time derivative of vind (tangential) at blade 1, node 8, m/s/s
        131   -9.173854389370E-001                                                     T               2         First time derivative of vind (axial) at blade 1, node 9, m/s/s
        132    1.420892835204E-001                                                     T               2         First time derivative of vind (tangential) at blade 1, node 9, m/s/s
        133   -9.851620103794E-001                                                     T               2         First time derivative of vind (axial) at blade 1, node 10, m/s/s
        134    1.285262240801E-001                                                     T               2         First time derivative of vind (tangential) at blade 1, node 10, m/s/s
        135   -1.215146105762E+000                                                     T               2         First time derivative of vind (axial) at blade 1, node 11, m/s/s
        136    1.244559180115E-001                                                     T               2         First time derivative of vind (tangential) at blade 1, node 11, m/s/s
        137   -1.387984413945E+000                                                     T               2         First time derivative of vind (axial) at blade 1, node 12, m/s/s
        138    1.163884513012E-001                                                     T               2         First time derivative of vind (tangential) at blade 1, node 12, m/s/s
        139   -1.377574712485E+000                                                     T               2         First time derivative of vind (axial) at blade 1, node 13, m/s/s
        140    1.041183171441E-001                                                     T               2         First time derivative of vind (tangential) at blade 1, node 13, m/s/s
        141   -1.488167832559E+000                                                     T               2         First time derivative of vind (axial) at blade 1, node 14, m/s/s
        142    9.757376839566E-002                                                     T               2         First time derivative of vind (tangential) at blade 1, node 14, m/s/s
        143   -1.611988099336E+000                                                     T               2         First time derivative of vind (axial) at blade 1, node 15, m/s/s
        144    9.182283289131E-002                                                     T               2         First time derivative of vind (tangential) at blade 1, node 15, m/s/s
        145   -1.697148506924E+000                                                     T               2         First time derivative of vind (axial) at blade 1, node 16, m/s/s
        146    8.901975675399E-002                                                     T               2         First time derivative of vind (tangential) at blade 1, node 16, m/s/s
        147   -1.732058867478E+000                                                     T               2         First time derivative of vind (axial) at blade 1, node 17, m/s/s
        148    8.743307407441E-002                                                     T               2         First time derivative of vind (tangential) at blade 1, node 17, m/s/s
        149   -1.630848587030E+000                                                     T               2         First time derivative of vind (axial) at blade 1, node 18, m/s/s
        150    8.420299378747E-002                                                     T               2         First time derivative of vind (tangential) at blade 1, node 18, m/s/s
        151   -2.831901394151E+000                                                     T               2         First time derivative of vind (axial) at blade 1, node 19, m/s/s
        152    0.000000000000E+000                                                     T               2         First time derivative of vind (tangential) at blade 1, node 19, m/s/s
        153   -3.108563273494E+000                                                     T               2         First time derivative of vind (axial) at blade 2, node 1, m/s/s
        154    0.000000000000E+000                                                     T               2         First time derivative of vind (tangential) at blade 2, node 1, m/s/s
        155    0.000000000000E+000                                                     T               2         First time derivative of vind (axial) at blade 2, node 2, m/s/s
        156    0.000000000000E+000                                                     T               2         First time derivative of vind (tangential) at blade 2, node 2, m/s/s
        157    0.000000000000E+000                                                     T               2         First time derivative of vind (axial) at blade 2, node 3, m/s/s
        158    0.000000000000E+000                                                     T               2         First time derivative of vind (tangential) at blade 2, node 3, m/s/s
        159    0.000000000000E+000                                                     T               2         First time derivative of vind (axial) at blade 2, node 4, m/s/s
        160    0.000000000000E+000                                                     T               2         First time derivative of vind (tangential) at blade 2, node 4, m/s/s
        161   -8.859961279281E-001                                                     T               2         First time derivative of vind (axial) at blade 2, node 5, m/s/s
        162    3.118259056406E-001                                                     T               2         First time derivative of vind (tangential) at blade 2, node 5, m/s/s
        163   -8.274553896317E-001                                                     T               2         First time derivative of vind (axial) at blade 2, node 6, m/s/s
        164    2.293825559648E-001                                                     T               2         First time derivative of vind (tangential) at blade 2, node 6, m/s/s
        165   -7.369250043648E-001                                                     T               2         First time derivative of vind (axial) at blade 2, node 7, m/s/s
        166    1.711059463082E-001                                                     T               2         First time derivative of vind (tangential) at blade 2, node 7, m/s/s
        167   -7.524253575630E-001                                                     T               2         First time derivative of vind (axial) at blade 2, node 8, m/s/s
        168    1.447694909674E-001                                                     T               2         First time derivative of vind (tangential) at blade 2, node 8, m/s/s
        169   -9.190308459081E-001                                                     T               2         First time derivative of vind (axial) at blade 2, node 9, m/s/s
        170    1.406085306924E-001                                                     T               2         First time derivative of vind (tangential) at blade 2, node 9, m/s/s
        171   -9.884241913657E-001                                                     T               2         First time derivative of vind (axial) at blade 2, node 10, m/s/s
        172    1.276120362683E-001                                                     T               2         First time derivative of vind (tangential) at blade 2, node 10, m/s/s
        173   -1.222257103937E+000                                                     T               2         First time derivative of vind (axial) at blade 2, node 11, m/s/s
        174    1.239699198500E-001                                                     T               2         First time derivative of vind (tangential) at blade 2, node 11, m/s/s
        175   -1.395674045082E+000                                                     T               2         First time derivative of vind (axial) at blade 2, node 12, m/s/s
        176    1.162134408931E-001                                                     T               2         First time derivative of vind (tangential) at blade 2, node 12, m/s/s
        177   -1.383347976956E+000                                                     T               2         First time derivative of vind (axial) at blade 2, node 13, m/s/s