
Linearized model: Predictions were generated on 27-Feb-2025 at 19:40:41 using OpenFAST, compiled on Feb 27 2025 at 18:00:14 as a 64-bit application using double precision at commit HEAD-HASH-NOTFOUND
 linked with  NWTC Subroutine Library; ElastoDyn; InflowWind; AeroDyn; ServoDyn

Description from the FAST input file: NREL 5.0 MW Baseline Wind Turbine (Onshore), Linearization with AeroDyn + ED

Simulation information:
   Simulation time:                     1.0000 s
   Rotor Speed:                         1.2798 rad/s
   Azimuth:                             1.2699 rad
   Wind Speed:                          8.0000 m/s
   Number of continuous states:       228
   Number of discrete states:           0
   Number of constraint states:         0
   Number of inputs:                   60
   Number of outputs:                   0
   Jacobians included in this file?    No

Order of continuous states:
   Row/Column Operating Point                                                   Rotating Frame? Derivative Order Description
   ---------- ---------------                                                   --------------- ---------------- -----------
          1   -7.916168239932E+000                                                     T               2         vind (axial) at blade 1, node 1, m/s
          2    0.000000000000E+000                                                     T               2         vind (tangential) at blade 1, node 1, m/s
          3    0.000000000000E+000                                                     T               2         vind (axial) at blade 1, node 2, m/s
          4    0.000000000000E+000                                                     T               2         vind (tangential) at blade 1, node 2, m/s
          5    0.000000000000E+000                                                     T               2         vind (axial) at blade 1, node 3, m/s
          6    0.000000000000E+000                                                     T               2         vind (tangential) at blade 1, node 3, m/s
          7    0.000000000000E+000                                                     T               2         vind (axial) at blade 1, node 4, m/s
          8    0.000000000000E+000                                                     T               2         vind (tangential) at blade 1, node 4, m/s
          9   -2.217835054016E+000                                                     T               2         vind (axial) at blade 1, node 5, m/s
         10    8.017196552352E-001                                                     T               2         vind (tangential) at blade 1, node 5, m/s
         11   -2.072716536572E+000                                                     T               2         vind (axial) at blade 1, node 6, m/s
         12    5.831910629122E-001                                                     T               2         vind (tangential) at blade 1, node 6, m/s
         13   -1.839508727639E+000                                                     T               2         vind (axial) at blade 1, node 7, m/s
         14    4.312687079151E-001                                                     T               2         vind (tangential) at blade 1, node 7, m/s
         15   -1.867933260336E+000                                                     T               2         vind (axial) at blade 1, node 8, m/s
         16    3.615004114999E-001                                                     T               2         vind (tangential) at blade 1, node 8, m/s
         17   -2.270329442952E+000                                                     T               2         vind (axial) at blade 1, node 9, m/s
         18    3.478717957600E-001                                                     T               2         vind (tangential) at blade 1, node 9, m/s
         19   -2.435617861056E+000                                                     T               2         vind (axial) at blade 1, node 10, m/s
         20    3.129030677443E-001                                                     T               2         vind (tangential) at blade 1, node 10, m/s
         21   -3.016378450297E+000                                                     T               2         vind (axial) at blade 1, node 11, m/s
         22    3.008074734786E-001                                                     T               2         vind (tangential) at blade 1, node 11, m/s
         23   -3.446930407227E+000                                                     T               2         vind (axial) at blade 1, node 12, m/s
         24    2.786094317598E-001                                                     T               2         vind (tangential) at blade 1, node 12, m/s
         25   -3.432657016682E+000                                                     T               2         vind (axial) at blade 1, node 13, m/s
         26    2.459418723228E-001                                                     T               2         vind (tangential) at blade 1, node 13, m/s
         27   -3.710482108250E+000                                                     T               2         vind (axial) at blade 1, node 14, m/s
         28    2.268826387267E-001                                                     T               2         vind (tangential) at blade 1, node 14, m/s
         29   -4.049456470502E+000                                                     T               2         vind (axial) at blade 1, node 15, m/s
         30    2.084050213042E-001                                                     T               2         vind (tangential) at blade 1, node 15, m/s
         31   -4.235337564915E+000                                                     T               2         vind (axial) at blade 1, node 16, m/s
         32    1.990632723051E-001                                                     T               2         vind (tangential) at blade 1, node 16, m/s
         33   -4.240998885870E+000                                                     T               2         vind (axial) at blade 1, node 17, m/s
         34    1.926421812735E-001                                                     T               2         vind (tangential) at blade 1, node 17, m/s
         35   -3.841056645679E+000                                                     T               2         vind (axial) at blade 1, node 18, m/s
         36    1.801104435995E-001                                                     T               2         vind (tangential) at blade 1, node 18, m/s
         37   -6.074104018347E+000                                                     T               2         vind (axial) at blade 1, node 19, m/s
         38    0.000000000000E+000                                                     T               2         vind (tangential) at blade 1, node 19, m/s
         39   -7.714832137965E+000                                                     T               2         vind (axial) at blade 2, node 1, m/s
         40    0.000000000000E+000                                                     T               2         vind (tangential) at blade 2, node 1, m/s
         41    0.000000000000E+000                                                     T               2         vind (axial) at blade 2, node 2, m/s
         42    0.000000000000E+000                                                     T               2         vind (tangential) at blade 2, node 2, m/s
         43    0.000000000000E+000                                                     T               2         vind (axial) at blade 2, node 3, m/s
         44    0.000000000000E+000                                                     T               2         vind (tangential) at blade 2, node 3, m/s
         45    0.000000000000E+000                                                     T               2         vind (axial) at blade 2, node 4, m/s
         46    0.000000000000E+000                                                     T               2         vind (tangential) at blade 2, node 4, m/s
         47   -2.194189450491E+000                                                     T               2         vind (axial) at blade 2, node 5, m/s
         48    7.689413864229E-001                                                     T               2         vind (tangential) at blade 2, node 5, m/s
         49   -2.048419532223E+000                                                     T               2         vind (axial) at blade 2, node 6, m/s
         50    5.655545986493E-001                                                     T               2         vind (tangential) at blade 2, node 6, m/s
         51   -1.822942800361E+000                                                     T               2         vind (axial) at blade 2, node 7, m/s
         52    4.214818529347E-001                                                     T               2         vind (tangential) at blade 2, node 7, m/s
         53   -1.861113205797E+000                                                     T               2         vind (axial) at blade 2, node 8, m/s
         54    3.562908257848E-001                                                     T               2         vind (tangential) at blade 2, node 8, m/s
         55   -2.276303088259E+000                                                     T               2         vind (axial) at blade 2, node 9, m/s
         56    3.458323218369E-001                                                     T               2         vind (tangential) at blade 2, node 9, m/s
         57   -2.446216947854E+000                                                     T               2         vind (axial) at blade 2, node 10, m/s
         58    3.128399518842E-001                                                     T               2         vind (tangential) at blade 2, node 10, m/s
         59   -3.031014582383E+000                                                     T               2         vind (axial) at blade 2, node 11, m/s
         60    3.025544226403E-001                                                     T               2         vind (tangential) at blade 2, node 11, m/s
         61   -3.457583675822E+000                                                     T               2         vind (axial) at blade 2, node 12, m/s
         62    2.818381178075E-001                                                     T               2         vind (tangential) at blade 2, node 12, m/s
         63   -3.426052991299E+000                                                     T               2         vind (axial) at blade 2, node 13, m/s
         64    2.504824533064E-001                                                     T               2         vind (tangential) at blade 2, node 13, m/s
         65   -3.679040395663E+000                                                     T               2         vind (axial) at blade 2, node 14, m/s
         66    2.328106636817E-001                                                     T               2         vind (tangential) at blade 2, node 14, m/s
         67   -3.932692105837E+000                                                     T               2         vind (axial) at blade 2, node 15, m/s
         68    2.171962290082E-001                                                     T               2         vind (tangential) at blade 2, node 15, m/s
         69   -3.972529982463E+000                                                     T               2         vind (axial) at blade 2, node 16, m/s
         70    2.106153368211E-001                                                     T               2         vind (tangential) at blade 2, node 16, m/s
         71   -3.917451895231E+000                                                     T               2         vind (axial) at blade 2, node 17, m/s
         72    1.871161239802E-001                                                     T               2         vind (tangential) at blade 2, node 17, m/s
         73   -3.557083870375E+000                                                     T               2         vind (axial) at blade 2, node 18, m/s
         74    1.711078561234E-001                                                     T               2         vind (tangential) at blade 2, node 18, m/s
         75   -6.358897424050E+000                                                     T               2         vind (axial) at blade 2, node 19, m/s
         76    0.000000000000E+000                                                     T               2         vind (tangential) at blade 2, node 19, m/s
         77   -7.847597358064E+000                                                     T               2         vind (axial) at blade 3, node 1, m/s
         78    0.000000000000E+000                                                     T               2         vind (tangential) at blade 3, node 1, m/s
         79    0.000000000000E+000                                                     T               2         vind (axial) at blade 3, node 2, m/s
         80    0.000000000000E+000                                                     T               2         vind (tangential) at blade 3, node 2, m/s
         81    0.000000000000E+000                                                     T               2         vind (axial) at blade 3, node 3, m/s
         82    0.000000000000E+000                                                     T               2         vind (tangential) at blade 3, node 3, m/s
         83    0.000000000000E+000                                                     T               2         vind (axial) at blade 3, node 4, m/s
         84    0.000000000000E+000                                                     T               2         vind (tangential) at blade 3, node 4, m/s
         85   -2.237498080558E+000                                                     T               2         vind (axial) at blade 3, node 5, m/s
         86    8.527577742841E-001                                                     T               2         vind (tangential) at blade 3, node 5, m/s
         87   -2.113398520286E+000                                                     T               2         vind (axial) at blade 3, node 6, m/s
         88    6.155212825641E-001                                                     T               2         vind (tangential) at blade 3, node 6, m/s
         89   -1.875099589887E+000                                                     T               2         vind (axial) at blade 3, node 7, m/s
         90    4.512507449441E-001                                                     T               2         vind (tangential) at blade 3, node 7, m/s
         91   -1.891401392511E+000                                                     T               2         vind (axial) at blade 3, node 8, m/s
         92    3.741921942210E-001                                                     T               2         vind (tangential) at blade 3, node 8, m/s
         93   -2.274152834712E+000                                                     T               2         vind (axial) at blade 3, node 9, m/s
         94    3.560320953708E-001                                                     T               2         vind (tangential) at blade 3, node 9, m/s
         95   -2.432524256440E+000                                                     T               2         vind (axial) at blade 3, node 10, m/s
         96    3.189594311565E-001                                                     T               2         vind (tangential) at blade 3, node 10, m/s
         97   -2.994732670011E+000                                                     T               2         vind (axial) at blade 3, node 11, m/s
         98    3.058586198084E-001                                                     T               2         vind (tangential) at blade 3, node 11, m/s
         99   -3.418984287856E+000                                                     T               2         vind (axial) at blade 3, node 12, m/s
        100    2.830995963303E-001                                                     T               2         vind (tangential) at blade 3, node 12, m/s
        101   -3.398814781162E+000                                                     T               2         vind (axial) at blade 3, node 13, m/s
        102    2.502275190753E-001                                                     T               2         vind (tangential) at blade 3, node 13, m/s
        103   -3.672123869505E+000                                                     T               2         vind (axial) at blade 3, node 14, m/s
        104    2.314873144916E-001                                                     T               2         vind (tangential) at blade 3, node 14, m/s
        105   -3.986082499003E+000                                                     T               2         vind (axial) at blade 3, node 15, m/s
        106    2.144054123519E-001                                                     T               2         vind (tangential) at blade 3, node 15, m/s
        107   -4.104379217577E+000                                                     T               2         vind (axial) at blade 3, node 16, m/s
        108    2.067846002312E-001                                                     T               2         vind (tangential) at blade 3, node 16, m/s
        109   -4.090783973811E+000                                                     T               2         vind (axial) at blade 3, node 17, m/s
        110    2.021745510496E-001                                                     T               2         vind (tangential) at blade 3, node 17, m/s
        111   -3.726809326389E+000                                                     T               2         vind (axial) at blade 3, node 18, m/s
        112    1.712159065103E-001                                                     T               2         vind (tangential) at blade 3, node 18, m/s
        113   -6.339595581517E+000                                                     T               2         vind (axial) at blade 3, node 19, m/s
        114    0.000000000000E+000                                                     T               2         vind (tangential) at blade 3, node 19, m/s
        115   -3.176054548765E+000                                                     T               2         First time derivative of vind (axial) at blade 1, node 1, m/s/s
        116    0.000000000000E+000                                                     T               2         First time derivative of vind (tangential) at blade 1, node 1, m/s/s
        117    0.000000000000E+000                                                     T               2         First time derivative of vind (axial) at blade 1, node 2, m/s/s
        118    0.000000000000E+000                                                     T               2         First time derivative of vind (tangential) at blade 1, node 2, m/s/s
        119    0.000000000000E+000                                                     T               2         First time derivative of vind (axial) at blade 1, node 3, m/s/s
        120    0.000000000000E+000                                                     T               2         First time derivative of vind (tangential) at blade 1, node 3, m/s/s
        121    0.000000000000E+000                                                     T               2         First time derivative of vind (axial) at blade 1, node 4, m/s/s
        122    0.000000000000E+000                                                     T               2         First time derivative of vind (tangential) at blade 1, node 4, m/s/s
        123   -8.915983987041E-001                                                     T               2         First time derivative of vind (axial) at blade 1, node 5, m/s/s
        124    3.239724578113E-001                                                     T               2         First time derivative of vind (tangential) at blade 1, node 5, m/s/s
        125   -8.353403647423E-001                                                     T               2         First time derivative of vind (axial) at blade 1, node 6, m/s/s
        126    2.362243058253E-001                                                     T               2         First time derivative of vind (tangential) at blade 1, node 6, m/s/s
        127   -7.432523090027E-001                                                     T               2         First time derivative of vind (axial) at blade 1, node 7, m/s/s
        128    1.752516481550E-001                                                     T               2         First time derivative of vind (tangential) at blade 1, node 7, m/s/s
        129   -7.558793160905E-001                                                     T               2         First time derivative of vind (axial) at blade 1, node 8, m/s/s
        130    1.473557180508E-001                                                     T               2         First time derivative of vind (tangential) at blade 1, node 8, m/s/s
        131   -9.174769876393E-001                                                     T               2         First time derivative of vind (axial) at blade 1, node 9, m/s/s
        132    1.421166679891E-001                                                     T               2         First time derivative of vind (tangential) at blade 1, node 9, m/s/s
        133   -9.852420131658E-001                                                     T               2         First time derivative of vind (axial) at blade 1, node 10, m/s/s
        134    1.285513493430E-001                                                     T               2         First time derivative of vind (tangential) at blade 1, node 10, m/s/s
        135   -1.215189075398E+000                                                     T               2         First time derivative of vind (axial) at blade 1, node 11, m/s/s
        136    1.244807893256E-001                                                     T               2         First time derivative of vind (tangential) at blade 1, node 11, m/s/s
        137   -1.388001830805E+000                                                     T               2         First time derivative of vind (axial) at blade 1, node 12, m/s/s
        138    1.164120472242E-001                                                     T               2         First time derivative of vind (tangential) at blade 1, node 12, m/s/s
        139   -1.377541056019E+000                                                     T               2         First time derivative of vind (axial) at blade 1, node 13, m/s/s
        140    1.041402885504E-001                                                     T               2         First time derivative of vind (tangential) at blade 1, node 13, m/s/s
        141   -1.488096707430E+000                                                     T               2         First time derivative of vind (axial) at blade 1, node 14, m/s/s
        142    9.759487803304E-002                                                     T               2         First time derivative of vind (tangential) at blade 1, node 14, m/s/s
        143   -1.612212992175E+000                                                     T               2         First time derivative of vind (axial) at blade 1, node 15, m/s/s
        144    9.182962321082E-002                                                     T               2         First time derivative of vind (tangential) at blade 1, node 15, m/s/s
        145   -1.697189448916E+000                                                     T               2         First time derivative of vind (axial) at blade 1, node 16, m/s/s
        146    8.902824205471E-002                                                     T               2         First time derivative of vind (tangential) at blade 1, node 16, m/s/s
        147   -1.731995683777E+000                                                     T               2         First time derivative of vind (axial) at blade 1, node 17, m/s/s
        148    8.744182821860E-002                                                     T               2         First time derivative of vind (tangential) at blade 1, node 17, m/s/s
        149   -1.630114853814E+000                                                     T               2         First time derivative of vind (axial) at blade 1, node 18, m/s/s
        150    8.423805259575E-002                                                     T               2         First time derivative of vind (tangential) at blade 1, node 18, m/s/s
        151   -2.832351267549E+000                                                     T               2         First time derivative of vind (axial) at blade 1, node 19, m/s/s
        152    0.000000000000E+000                                                     T               2         First time derivative of vind (tangential) at blade 1, node 19, m/s/s
        153   -3.108757752239E+000                                                     T               2         First time derivative of vind (axial) at blade 2, node 1, m/s/s
        154    0.000000000000E+000                                                     T               2         First time derivative of vind (tangential) at blade 2, node 1, m/s/s
        155    0.000000000000E+000                                                     T               2         First time derivative of vind (axial) at blade 2, node 2, m/s/s
        156    0.000000000000E+000                                                     T               2         First time derivative of vind (tangential) at blade 2, node 2, m/s/s
        157    0.000000000000E+000                                                     T               2         First time derivative of vind (axial) at blade 2, node 3, m/s/s
        158    0.000000000000E+000                                                     T               2         First time derivative of vind (tangential) at blade 2, node 3, m/s/s
        159    0.000000000000E+000                                                     T               2         First time derivative of vind (axial) at blade 2, node 4, m/s/s
        160    0.000000000000E+000                                                     T               2         First time derivative of vind (tangential) at blade 2, node 4, m/s/s
        161   -8.860544115900E-001                                                     T               2         First time derivative of vind (axial) at blade 2, node 5, m/s/s
        162    3.118575821795E-001                                                     T               2         First time derivative of vind (tangential) at blade 2, node 5, m/s/s
        163   -8.275136489315E-001                                                     T               2         First time derivative of vind (axial) at blade 2, node 6, m/s/s
        164    2.294069957962E-001                                                     T               2         First time derivative of vind (tangential) at blade 2, node 6, m/s/s
        165   -7.369783484004E-001                                                     T               2         First time derivative of vind (axial) at blade 2, node 7, m/s/s
        166    1.711248979173E-001                                                     T               2         First time derivative of vind (tangential) at blade 2, node 7, m/s/s
        167   -7.524718337771E-001                                                     T               2         First time derivative of vind (axial) at blade 2, node 8, m/s/s
        168    1.447848937219E-001                                                     T               2         First time derivative of vind (tangential) at blade 2, node 8, m/s/s
        169   -9.190616937512E-001                                                     T               2         First time derivative of vind (axial) at blade 2, node 9, m/s/s
        170    1.406215449912E-001                                                     T               2         First time derivative of vind (tangential) at blade 2, node 9, m/s/s
        171   -9.884370636788E-001                                                     T               2         First time derivative of vind (axial) at blade 2, node 10, m/s/s
        172    1.276235808409E-001                                                     T               2         First time derivative of vind (tangential) at blade 2, node 10, m/s/s
        173   -1.222230996364E+000                                                     T               2         First time derivative of vind (axial) at blade 2, node 11, m/s/s
        174    1.239813370910E-001                                                     T               2         First time derivative of vind (tangential) at blade 2, node 11, m/s/s
        175   -1.395607844347E+000                                                     T               2         First time derivative of vind (axial) at blade 2, node 12, m/s/s
        176    1.162247633615E-001                                                     T               2         First time derivative of vind (tangential) at blade 2, node 12, m/s/s
        177   -1.383221921650E+000                                                     T               2         First time derivative of vind (axial) at blade 2, node 13, m/s/s