
Linearized model: Predictions were generated on 11-Mar-2026 at 17:04:04 using OpenFAST, compiled on Mar 11 2026 at 16:48:05 as a 64-bit application using double precision at commit -128-NOTFOUND
 linked with  NWTC Subroutine Library; ElastoDyn; InflowWind; AeroDyn; ServoDyn

Description from the FAST input file: NREL 5.0 MW Baseline Wind Turbine (Onshore), Linearization with AeroDyn + ED

Simulation information:
   Simulation time:                     1.0000 s
   Rotor Speed:                         1.2798 rad/s
   Azimuth:                             1.2699 rad
   Wind Speed:                          8.0000 m/s
   Number of continuous states:       260
   Number of discrete states:           0
   Number of constraint states:         0
   Number of inputs:                   72
   Number of outputs:                  38
   Jacobians included in this file?    No

Order of continuous states:
   Row/Column Operating Point                                                   Rotating Frame? Derivative Order Description
   ---------- ---------------                                                   --------------- ---------------- -----------
          1    2.059381981223E-001                                                     F               2         ED 1st tower fore-aft bending mode DOF (internal DOF index = DOF_TFA1), m
          2   -5.122172215575E-003                                                     F               2         ED 1st tower side-to-side bending mode DOF (internal DOF index = DOF_TSS1), m
          3   -6.262606659231E-005                                                     F               2         ED 2nd tower fore-aft bending mode DOF (internal DOF index = DOF_TFA2), m
          4    1.723201816892E-005                                                     F               2         ED 2nd tower side-to-side bending mode DOF (internal DOF index = DOF_TSS2), m
          5    5.058594026774E-005                                                     F               2         ED Nacelle yaw DOF (internal DOF index = DOF_Yaw), rad
          6    5.982239245414E+000                                                     F               2         ED Variable speed generator DOF (internal DOF index = DOF_GeAz), rad
          7    2.928779495896E-005                                                     F               2         ED Drivetrain rotational-flexibility DOF (internal DOF index = DOF_DrTr), rad
          8    3.813673678975E+000                                                     T               2         ED 1st flapwise bending-mode DOF of blade 1 (internal DOF index = DOF_BF(1,1)), m
          9    4.020930135145E+000                                                     T               2         ED 1st flapwise bending-mode DOF of blade 2 (internal DOF index = DOF_BF(2,1)), m
         10    3.636899357123E+000                                                     T               2         ED 1st flapwise bending-mode DOF of blade 3 (internal DOF index = DOF_BF(3,1)), m
         11   -1.673734297007E-001                                                     T               2         ED 1st edgewise bending-mode DOF of blade 1 (internal DOF index = DOF_BE(1,1)), m
         12    5.888410031433E-001                                                     T               2         ED 1st edgewise bending-mode DOF of blade 2 (internal DOF index = DOF_BE(2,1)), m
         13    1.922993999605E-001                                                     T               2         ED 1st edgewise bending-mode DOF of blade 3 (internal DOF index = DOF_BE(3,1)), m
         14    5.115279614750E-002                                                     T               2         ED 2nd flapwise bending-mode DOF of blade 1 (internal DOF index = DOF_BF(1,2)), m
         15    1.776107435850E-001                                                     T               2         ED 2nd flapwise bending-mode DOF of blade 2 (internal DOF index = DOF_BF(2,2)), m
         16    1.374849871067E-001                                                     T               2         ED 2nd flapwise bending-mode DOF of blade 3 (internal DOF index = DOF_BF(3,2)), m
         17    4.685130409025E-001                                                     F               2         ED First time derivative of 1st tower fore-aft bending mode DOF (internal DOF index = DOF_TFA1), m/s
         18    1.807374922539E-002                                                     F               2         ED First time derivative of 1st tower side-to-side bending mode DOF (internal DOF index = DOF_TSS1), m/s
         19    1.245032829711E-003                                                     F               2         ED First time derivative of 2nd tower fore-aft bending mode DOF (internal DOF index = DOF_TFA2), m/s
         20    1.035127470261E-004                                                     F               2         ED First time derivative of 2nd tower side-to-side bending mode DOF (internal DOF index = DOF_TSS2), m/s
         21   -1.845939006570E-004                                                     F               2         ED First time derivative of Nacelle yaw DOF (internal DOF index = DOF_Yaw), rad/s
         22    1.277419110841E+000                                                     F               2         ED First time derivative of Variable speed generator DOF (internal DOF index = DOF_GeAz), rad/s
         23    2.387446118379E-003                                                     F               2         ED First time derivative of Drivetrain rotational-flexibility DOF (internal DOF index = DOF_DrTr), rad/s
         24   -3.523408431865E-001                                                     T               2         ED First time derivative of 1st flapwise bending-mode DOF of blade 1 (internal DOF index = DOF_BF(1,1)), m/s
         25   -1.206555193234E+000                                                     T               2         ED First time derivative of 1st flapwise bending-mode DOF of blade 2 (internal DOF index = DOF_BF(2,1)), m/s
         26   -1.599461787695E+000                                                     T               2         ED First time derivative of 1st flapwise bending-mode DOF of blade 3 (internal DOF index = DOF_BF(3,1)), m/s
         27    1.622553554108E-001                                                     T               2         ED First time derivative of 1st edgewise bending-mode DOF of blade 1 (internal DOF index = DOF_BE(1,1)), m/s
         28   -1.245561501134E+000                                                     T               2         ED First time derivative of 1st edgewise bending-mode DOF of blade 2 (internal DOF index = DOF_BE(2,1)), m/s
         29    3.434689826117E-001                                                     T               2         ED First time derivative of 1st edgewise bending-mode DOF of blade 3 (internal DOF index = DOF_BE(3,1)), m/s
         30   -1.503769500972E-001                                                     T               2         ED First time derivative of 2nd flapwise bending-mode DOF of blade 1 (internal DOF index = DOF_BF(1,2)), m/s
         31   -4.827619584756E-001                                                     T               2         ED First time derivative of 2nd flapwise bending-mode DOF of blade 2 (internal DOF index = DOF_BF(2,2)), m/s
         32   -2.066218923376E-001                                                     T               2         ED First time derivative of 2nd flapwise bending-mode DOF of blade 3 (internal DOF index = DOF_BF(3,2)), m/s
         33   -7.916167629738E+000                                                     T               2         AD vind (axial) at blade 1, node 1, m/s
         34    0.000000000000E+000                                                     T               2         AD vind (tangential) at blade 1, node 1, m/s
         35    0.000000000000E+000                                                     T               2         AD vind (axial) at blade 1, node 2, m/s
         36    0.000000000000E+000                                                     T               2         AD vind (tangential) at blade 1, node 2, m/s
         37    0.000000000000E+000                                                     T               2         AD vind (axial) at blade 1, node 3, m/s
         38    0.000000000000E+000                                                     T               2         AD vind (tangential) at blade 1, node 3, m/s
         39    0.000000000000E+000                                                     T               2         AD vind (axial) at blade 1, node 4, m/s
         40    0.000000000000E+000                                                     T               2         AD vind (tangential) at blade 1, node 4, m/s
         41   -2.217835631112E+000                                                     T               2         AD vind (axial) at blade 1, node 5, m/s
         42    8.017199186714E-001                                                     T               2         AD vind (tangential) at blade 1, node 5, m/s
         43   -2.072718393651E+000                                                     T               2         AD vind (axial) at blade 1, node 6, m/s
         44    5.831917773742E-001                                                     T               2         AD vind (tangential) at blade 1, node 6, m/s
         45   -1.839512569134E+000                                                     T               2         AD vind (axial) at blade 1, node 7, m/s
         46    4.312699267590E-001                                                     T               2         AD vind (tangential) at blade 1, node 7, m/s
         47   -1.867939457398E+000                                                     T               2         AD vind (axial) at blade 1, node 8, m/s
         48    3.615021391944E-001                                                     T               2         AD vind (tangential) at blade 1, node 8, m/s
         49   -2.270337587716E+000                                                     T               2         AD vind (axial) at blade 1, node 9, m/s
         50    3.478741081189E-001                                                     T               2         AD vind (tangential) at blade 1, node 9, m/s
         51   -2.435626886435E+000                                                     T               2         AD vind (axial) at blade 1, node 10, m/s
         52    3.129059259404E-001                                                     T               2         AD vind (tangential) at blade 1, node 10, m/s
         53   -3.016379804126E+000                                                     T               2         AD vind (axial) at blade 1, node 11, m/s
         54    3.008107776219E-001                                                     T               2         AD vind (tangential) at blade 1, node 11, m/s
         55   -3.446917482848E+000                                                     T               2         AD vind (axial) at blade 1, node 12, m/s
         56    2.786121180892E-001                                                     T               2         AD vind (tangential) at blade 1, node 12, m/s
         57   -3.432611623416E+000                                                     T               2         AD vind (axial) at blade 1, node 13, m/s
         58    2.459425993763E-001                                                     T               2         AD vind (tangential) at blade 1, node 13, m/s
         59   -3.710388093984E+000                                                     T               2         AD vind (axial) at blade 1, node 14, m/s
         60    2.268795288238E-001                                                     T               2         AD vind (tangential) at blade 1, node 14, m/s
         61   -4.049288990869E+000                                                     T               2         AD vind (axial) at blade 1, node 15, m/s
         62    2.083966612057E-001                                                     T               2         AD vind (tangential) at blade 1, node 15, m/s
         63   -4.235091826378E+000                                                     T               2         AD vind (axial) at blade 1, node 16, m/s
         64    1.990507691040E-001                                                     T               2         AD vind (tangential) at blade 1, node 16, m/s
         65   -4.240708094669E+000                                                     T               2         AD vind (axial) at blade 1, node 17, m/s
         66    1.926281542821E-001                                                     T               2         AD vind (tangential) at blade 1, node 17, m/s
         67   -3.840788932543E+000                                                     T               2         AD vind (axial) at blade 1, node 18, m/s
         68    1.800988455098E-001                                                     T               2         AD vind (tangential) at blade 1, node 18, m/s
         69   -6.073976790962E+000                                                     T               2         AD vind (axial) at blade 1, node 19, m/s
         70    0.000000000000E+000                                                     T               2         AD vind (tangential) at blade 1, node 19, m/s
         71   -7.714831731963E+000                                                     T               2         AD vind (axial) at blade 2, node 1, m/s
         72    0.000000000000E+000                                                     T               2         AD vind (tangential) at blade 2, node 1, m/s
         73    0.000000000000E+000                                                     T               2         AD vind (axial) at blade 2, node 2, m/s
         74    0.000000000000E+000                                                     T               2         AD vind (tangential) at blade 2, node 2, m/s
         75    0.000000000000E+000                                                     T               2         AD vind (axial) at blade 2, node 3, m/s
         76    0.000000000000E+000                                                     T               2         AD vind (tangential) at blade 2, node 3, m/s
         77    0.000000000000E+000                                                     T               2         AD vind (axial) at blade 2, node 4, m/s
         78    0.000000000000E+000                                                     T               2         AD vind (tangential) at blade 2, node 4, m/s
         79   -2.194190760389E+000                                                     T               2         AD vind (axial) at blade 2, node 5, m/s
         80    7.689420797941E-001                                                     T               2         AD vind (tangential) at blade 2, node 5, m/s
         81   -2.048422651620E+000                                                     T               2         AD vind (axial) at blade 2, node 6, m/s
         82    5.655558107157E-001                                                     T               2         AD vind (tangential) at blade 2, node 6, m/s
         83   -1.822948558106E+000                                                     T               2         AD vind (axial) at blade 2, node 7, m/s
         84    4.214836866966E-001                                                     T               2         AD vind (tangential) at blade 2, node 7, m/s
         85   -1.861122080199E+000                                                     T               2         AD vind (axial) at blade 2, node 8, m/s
         86    3.562933666285E-001                                                     T               2         AD vind (tangential) at blade 2, node 8, m/s
         87   -2.276314679642E+000                                                     T               2         AD vind (axial) at blade 2, node 9, m/s
         88    3.458357331570E-001                                                     T               2         AD vind (tangential) at blade 2, node 9, m/s
         89   -2.446230352843E+000                                                     T               2         AD vind (axial) at blade 2, node 10, m/s
         90    3.128442731523E-001                                                     T               2         AD vind (tangential) at blade 2, node 10, m/s
         91   -3.031019717218E+000                                                     T               2         AD vind (axial) at blade 2, node 11, m/s
         92    3.025597724180E-001                                                     T               2         AD vind (tangential) at blade 2, node 11, m/s
         93   -3.457576895563E+000                                                     T               2         AD vind (axial) at blade 2, node 12, m/s
         94    2.818436116322E-001                                                     T               2         AD vind (tangential) at blade 2, node 12, m/s
         95   -3.426018138061E+000                                                     T               2         AD vind (axial) at blade 2, node 13, m/s
         96    2.504865687629E-001                                                     T               2         AD vind (tangential) at blade 2, node 13, m/s
         97   -3.678973939817E+000                                                     T               2         AD vind (axial) at blade 2, node 14, m/s
         98    2.328113120862E-001                                                     T               2         AD vind (tangential) at blade 2, node 14, m/s
         99   -3.932601513561E+000                                                     T               2         AD vind (axial) at blade 2, node 15, m/s
        100    2.171908771967E-001                                                     T               2         AD vind (tangential) at blade 2, node 15, m/s
        101   -3.972436341032E+000                                                     T               2         AD vind (axial) at blade 2, node 16, m/s
        102    2.106043076862E-001                                                     T               2         AD vind (tangential) at blade 2, node 16, m/s
        103   -3.917355118143E+000                                                     T               2         AD vind (axial) at blade 2, node 17, m/s
        104    1.871033908231E-001                                                     T               2         AD vind (tangential) at blade 2, node 17, m/s
        105   -3.557005863189E+000                                                     T               2         AD vind (axial) at blade 2, node 18, m/s
        106    1.710990839463E-001                                                     T               2         AD vind (tangential) at blade 2, node 18, m/s
        107   -6.358787640600E+000                                                     T               2         AD vind (axial) at blade 2, node 19, m/s
        108    0.000000000000E+000                                                     T               2         AD vind (tangential) at blade 2, node 19, m/s
        109   -7.847596864955E+000                                                     T               2         AD vind (axial) at blade 3, node 1, m/s
        110    0.000000000000E+000                                                     T               2         AD vind (tangential) at blade 3, node 1, m/s
        111    0.000000000000E+000                                                     T               2         AD vind (axial) at blade 3, node 2, m/s
        112    0.000000000000E+000                                                     T               2         AD vind (tangential) at blade 3, node 2, m/s
        113    0.000000000000E+000                                                     T               2         AD vind (axial) at blade 3, node 3, m/s
        114    0.000000000000E+000                                                     T               2         AD vind (tangential) at blade 3, node 3, m/s
        115    0.000000000000E+000                                                     T               2         AD vind (axial) at blade 3, node 4, m/s
        116    0.000000000000E+000                                                     T               2         AD vind (tangential) at blade 3, node 4, m/s
        117   -2.237498058731E+000                                                     T               2         AD vind (axial) at blade 3, node 5, m/s
        118    8.527576752834E-001                                                     T               2         AD vind (tangential) at blade 3, node 5, m/s
        119   -2.113398815223E+000                                                     T               2         AD vind (axial) at blade 3, node 6, m/s
        120    6.155213637706E-001                                                     T               2         AD vind (tangential) at blade 3, node 6, m/s
        121   -1.875100489980E+000                                                     T               2         AD vind (axial) at blade 3, node 7, m/s
        122    4.512510237594E-001                                                     T               2         AD vind (tangential) at blade 3, node 7, m/s
        123   -1.891403159880E+000                                                     T               2         AD vind (axial) at blade 3, node 8, m/s
        124    3.741926689210E-001                                                     T               2         AD vind (tangential) at blade 3, node 8, m/s
        125   -2.274155614451E+000                                                     T               2         AD vind (axial) at blade 3, node 9, m/s
        126    3.560327956862E-001                                                     T               2         AD vind (tangential) at blade 3, node 9, m/s
        127   -2.432528209395E+000                                                     T               2         AD vind (axial) at blade 3, node 10, m/s
        128    3.189603541657E-001                                                     T               2         AD vind (tangential) at blade 3, node 10, m/s
        129   -2.994736578768E+000                                                     T               2         AD vind (axial) at blade 3, node 11, m/s
        130    3.058595894470E-001                                                     T               2         AD vind (tangential) at blade 3, node 11, m/s
        131   -3.418988163811E+000                                                     T               2         AD vind (axial) at blade 3, node 12, m/s
        132    2.831001914600E-001                                                     T               2         AD vind (tangential) at blade 3, node 12, m/s
        133   -3.398818654507E+000                                                     T               2         AD vind (axial) at blade 3, node 13, m/s
        134    2.502269967155E-001                                                     T               2         AD vind (tangential) at blade 3, node 13, m/s
        135   -3.672130241170E+000                                                     T               2         AD vind (axial) at blade 3, node 14, m/s
        136    2.314846921262E-001                                                     T               2         AD vind (tangential) at blade 3, node 14, m/s
        137   -3.986089204096E+000                                                     T               2         AD vind (axial) at blade 3, node 15, m/s
        138    2.144002216193E-001                                                     T               2         AD vind (tangential) at blade 3, node 15, m/s
        139   -4.104366182831E+000                                                     T               2         AD vind (axial) at blade 3, node 16, m/s
        140    2.067777232430E-001                                                     T               2         AD vind (tangential) at blade 3, node 16, m/s
        141   -4.090739309499E+000                                                     T               2         AD vind (axial) at blade 3, node 17, m/s
        142    2.021673575440E-001                                                     T               2         AD vind (tangential) at blade 3, node 17, m/s
        143   -3.726742071150E+000                                                     T               2         AD vind (axial) at blade 3, node 18, m/s
        144    1.712084678978E-001                                                     T               2         AD vind (tangential) at blade 3, node 18, m/s
        145   -6.339398951107E+000                                                     T               2         AD vind (axial) at blade 3, node 19, m/s
        146    0.000000000000E+000                                                     T               2         AD vind (tangential) at blade 3, node 19, m/s
        147   -3.176054377750E+000                                                     T               2         AD First time derivative of vind (axial) at blade 1, node 1, m/s/s
        148    0.000000000000E+000                                                     T               2         AD First time derivative of vind (tangential) at blade 1, node 1, m/s/s
        149    0.000000000000E+000                                                     T               2         AD First time derivative of vind (axial) at blade 1, node 2, m/s/s
        150    0.000000000000E+000                                                     T               2         AD First time derivative of vind (tangential) at blade 1, node 2, m/s/s
        151    0.000000000000E+000                                                     T               2         AD First time derivative of vind (axial) at blade 1, node 3, m/s/s
        152    0.000000000000E+000                                                     T               2         AD First time derivative of vind (tangential) at blade 1, node 3, m/s/s
        153    0.000000000000E+000                                                     T               2         AD First time derivative of vind (axial) at blade 1, node 4, m/s/s
        154    0.000000000000E+000                                                     T               2         AD First time derivative of vind (tangential) at blade 1, node 4, m/s/s
        155   -8.915985485822E-001                                                     T               2         AD First time derivative of vind (axial) at blade 1, node 5, m/s/s
        156    3.239725258723E-001                                                     T               2         AD First time derivative of vind (tangential) at blade 1, node 5, m/s/s
        157   -8.353408440952E-001                                                     T               2         AD First time derivative of vind (axial) at blade 1, node 6, m/s/s
        158    2.362244901846E-001                                                     T               2         AD First time derivative of vind (tangential) at blade 1, node 6, m/s/s
        159   -7.432532807064E-001                                                     T               2         AD First time derivative of vind (axial) at blade 1, node 7, m/s/s
        160    1.752519565737E-001                                                     T               2         AD First time derivative of vind (tangential) at blade 1, node 7, m/s/s
        161   -7.558808394485E-001                                                     T               2         AD First time derivative of vind (axial) at blade 1, node 8, m/s/s
        162    1.473561429202E-001                                                     T               2         AD First time derivative of vind (tangential) at blade 1, node 8, m/s/s
        163   -9.174789175361E-001                                                     T               2         AD First time derivative of vind (axial) at blade 1, node 9, m/s/s
        164    1.421172166377E-001                                                     T               2         AD First time derivative of vind (tangential) at blade 1, node 9, m/s/s
        165   -9.852440501345E-001                                                     T               2         AD First time derivative of vind (axial) at blade 1, node 10, m/s/s
        166    1.285519980312E-001                                                     T               2         AD First time derivative of vind (tangential) at blade 1, node 10, m/s/s
        167   -1.215189304009E+000                                                     T               2         AD First time derivative of vind (axial) at blade 1, node 11, m/s/s
        168    1.244814981168E-001                                                     T               2         AD First time derivative of vind (tangential) at blade 1, node 11, m/s/s
        169   -1.387999024165E+000                                                     T               2         AD First time derivative of vind (axial) at blade 1, node 12, m/s/s
        170    1.164125779340E-001                                                     T               2         AD First time derivative of vind (tangential) at blade 1, node 12, m/s/s