
Linearized model: Predictions were generated on 19-Feb-2024 at 16:54:54 using OpenFAST, compiled as a 64-bit application using double precision at commit -128-NOTFOUND
 linked with  NWTC Subroutine Library; ElastoDyn; InflowWind; AeroDyn; ServoDyn

Description from the FAST input file: NREL 5.0 MW Baseline Wind Turbine (Onshore), Linearization with AD15 + ED

Simulation information:
   Simulation time:                     1.0000 s
   Rotor Speed:                         1.2799 rad/s
   Azimuth:                             1.2699 rad
   Wind Speed:                          8.0000 m/s
   Number of continuous states:        32
   Number of discrete states:           0
   Number of constraint states:         0
   Number of inputs:                    6
   Number of outputs:                  33
   Jacobians included in this file?    No

Order of continuous states:
   Row/Column Operating Point                     Rotating Frame? Derivative Order Description
   ---------- ---------------                     --------------- ---------------- -----------
          1    2.068E-01                                 F               2         1st tower fore-aft bending mode DOF (internal DOF index = DOF_TFA1), m
          2   -5.083E-03                                 F               2         1st tower side-to-side bending mode DOF (internal DOF index = DOF_TSS1), m
          3   -5.797E-05                                 F               2         2nd tower fore-aft bending mode DOF (internal DOF index = DOF_TFA2), m
          4    1.751E-05                                 F               2         2nd tower side-to-side bending mode DOF (internal DOF index = DOF_TSS2), m
          5    4.931E-05                                 F               2         Nacelle yaw DOF (internal DOF index = DOF_Yaw), rad
          6    5.982E+00                                 F               2         Variable speed generator DOF (internal DOF index = DOF_GeAz), rad
          7    3.725E-05                                 F               2         Drivetrain rotational-flexibility DOF (internal DOF index = DOF_DrTr), rad
          8    3.820E+00                                 T               2         1st flapwise bending-mode DOF of blade 1 (internal DOF index = DOF_BF(1,1)), m
          9    4.034E+00                                 T               2         1st flapwise bending-mode DOF of blade 2 (internal DOF index = DOF_BF(2,1)), m
         10    3.642E+00                                 T               2         1st flapwise bending-mode DOF of blade 3 (internal DOF index = DOF_BF(3,1)), m
         11   -1.676E-01                                 T               2         1st edgewise bending-mode DOF of blade 1 (internal DOF index = DOF_BE(1,1)), m
         12    5.844E-01                                 T               2         1st edgewise bending-mode DOF of blade 2 (internal DOF index = DOF_BE(2,1)), m
         13    1.957E-01                                 T               2         1st edgewise bending-mode DOF of blade 3 (internal DOF index = DOF_BE(3,1)), m
         14    5.164E-02                                 T               2         2nd flapwise bending-mode DOF of blade 1 (internal DOF index = DOF_BF(1,2)), m
         15    1.776E-01                                 T               2         2nd flapwise bending-mode DOF of blade 2 (internal DOF index = DOF_BF(2,2)), m
         16    1.379E-01                                 T               2         2nd flapwise bending-mode DOF of blade 3 (internal DOF index = DOF_BF(3,2)), m
         17    4.691E-01                                 F               2         First time derivative of 1st tower fore-aft bending mode DOF (internal DOF index = DOF_TFA1), m/s
         18    1.870E-02                                 F               2         First time derivative of 1st tower side-to-side bending mode DOF (internal DOF index = DOF_TSS1), m/s
         19    1.163E-03                                 F               2         First time derivative of 2nd tower fore-aft bending mode DOF (internal DOF index = DOF_TFA2), m/s
         20    1.145E-04                                 F               2         First time derivative of 2nd tower side-to-side bending mode DOF (internal DOF index = DOF_TSS2), m/s
         21   -2.165E-04                                 F               2         First time derivative of Nacelle yaw DOF (internal DOF index = DOF_Yaw), rad/s
         22    1.277E+00                                 F               2         First time derivative of Variable speed generator DOF (internal DOF index = DOF_GeAz), rad/s
         23    2.510E-03                                 F               2         First time derivative of Drivetrain rotational-flexibility DOF (internal DOF index = DOF_DrTr), rad/s
         24   -3.622E-01                                 T               2         First time derivative of 1st flapwise bending-mode DOF of blade 1 (internal DOF index = DOF_BF(1,1)), m/s
         25   -1.203E+00                                 T               2         First time derivative of 1st flapwise bending-mode DOF of blade 2 (internal DOF index = DOF_BF(2,1)), m/s
         26   -1.623E+00                                 T               2         First time derivative of 1st flapwise bending-mode DOF of blade 3 (internal DOF index = DOF_BF(3,1)), m/s
         27    1.695E-01                                 T               2         First time derivative of 1st edgewise bending-mode DOF of blade 1 (internal DOF index = DOF_BE(1,1)), m/s
         28   -1.282E+00                                 T               2         First time derivative of 1st edgewise bending-mode DOF of blade 2 (internal DOF index = DOF_BE(2,1)), m/s
         29    3.981E-01                                 T               2         First time derivative of 1st edgewise bending-mode DOF of blade 3 (internal DOF index = DOF_BE(3,1)), m/s
         30   -1.558E-01                                 T               2         First time derivative of 2nd flapwise bending-mode DOF of blade 1 (internal DOF index = DOF_BF(1,2)), m/s
         31   -4.861E-01                                 T               2         First time derivative of 2nd flapwise bending-mode DOF of blade 2 (internal DOF index = DOF_BF(2,2)), m/s
         32   -2.083E-01                                 T               2         First time derivative of 2nd flapwise bending-mode DOF of blade 3 (internal DOF index = DOF_BF(3,2)), m/s

Order of continuous state derivatives:
   Row/Column Operating Point                     Rotating Frame? Derivative Order Description
   ---------- ---------------                     --------------- ---------------- -----------
          1    4.691E-01                                 F               2         First time derivative of 1st tower fore-aft bending mode DOF (internal DOF index = DOF_TFA1), m/s
          2    1.870E-02                                 F               2         First time derivative of 1st tower side-to-side bending mode DOF (internal DOF index = DOF_TSS1), m/s
          3    1.163E-03                                 F               2         First time derivative of 2nd tower fore-aft bending mode DOF (internal DOF index = DOF_TFA2), m/s
          4    1.145E-04                                 F               2         First time derivative of 2nd tower side-to-side bending mode DOF (internal DOF index = DOF_TSS2), m/s
          5   -2.165E-04                                 F               2         First time derivative of Nacelle yaw DOF (internal DOF index = DOF_Yaw), rad/s
          6    1.277E+00                                 F               2         First time derivative of Variable speed generator DOF (internal DOF index = DOF_GeAz), rad/s
          7    2.510E-03                                 F               2         First time derivative of Drivetrain rotational-flexibility DOF (internal DOF index = DOF_DrTr), rad/s
          8   -3.622E-01                                 T               2         First time derivative of 1st flapwise bending-mode DOF of blade 1 (internal DOF index = DOF_BF(1,1)), m/s
          9   -1.203E+00                                 T               2         First time derivative of 1st flapwise bending-mode DOF of blade 2 (internal DOF index = DOF_BF(2,1)), m/s
         10   -1.623E+00                                 T               2         First time derivative of 1st flapwise bending-mode DOF of blade 3 (internal DOF index = DOF_BF(3,1)), m/s
         11    1.695E-01                                 T               2         First time derivative of 1st edgewise bending-mode DOF of blade 1 (internal DOF index = DOF_BE(1,1)), m/s
         12   -1.282E+00                                 T               2         First time derivative of 1st edgewise bending-mode DOF of blade 2 (internal DOF index = DOF_BE(2,1)), m/s
         13    3.981E-01                                 T               2         First time derivative of 1st edgewise bending-mode DOF of blade 3 (internal DOF index = DOF_BE(3,1)), m/s
         14   -1.558E-01                                 T               2         First time derivative of 2nd flapwise bending-mode DOF of blade 1 (internal DOF index = DOF_BF(1,2)), m/s
         15   -4.861E-01                                 T               2         First time derivative of 2nd flapwise bending-mode DOF of blade 2 (internal DOF index = DOF_BF(2,2)), m/s
         16   -2.083E-01                                 T               2         First time derivative of 2nd flapwise bending-mode DOF of blade 3 (internal DOF index = DOF_BF(3,2)), m/s
         17    2.640E-02                                 F               2         First time derivative of First time derivative of 1st tower fore-aft bending mode DOF (internal DOF index = DOF_TFA1), m/s/s
         18    2.029E-01                                 F               2         First time derivative of First time derivative of 1st tower side-to-side bending mode DOF (internal DOF index = DOF_TSS1), m/s/s
         19   -1.783E-02                                 F               2         First time derivative of First time derivative of 2nd tower fore-aft bending mode DOF (internal DOF index = DOF_TFA2), m/s/s
         20    2.448E-03                                 F               2         First time derivative of First time derivative of 2nd tower side-to-side bending mode DOF (internal DOF index = DOF_TSS2), m/s/s
         21   -5.113E-03                                 F               2         First time derivative of First time derivative of Nacelle yaw DOF (internal DOF index = DOF_Yaw), rad/s/s
         22    9.461E-03                                 F               2         First time derivative of First time derivative of Variable speed generator DOF (internal DOF index = DOF_GeAz), rad/s/s
         23    3.204E-02                                 F               2         First time derivative of First time derivative of Drivetrain rotational-flexibility DOF (internal DOF index = DOF_DrTr), rad/s/s
         24    2.324E-02                                 T               2         First time derivative of First time derivative of 1st flapwise bending-mode DOF of blade 1 (internal DOF index = DOF_BF(1,1)), m/s/s
         25    7.278E+00                                 T               2         First time derivative of First time derivative of 1st flapwise bending-mode DOF of blade 2 (internal DOF index = DOF_BF(2,1)), m/s/s
         26   -3.020E+00                                 T               2         First time derivative of First time derivative of 1st flapwise bending-mode DOF of blade 3 (internal DOF index = DOF_BF(3,1)), m/s/s
         27    8.540E-01                                 T               2         First time derivative of First time derivative of 1st edgewise bending-mode DOF of blade 1 (internal DOF index = DOF_BE(1,1)), m/s/s
         28   -1.185E+01                                 T               2         First time derivative of First time derivative of 1st edgewise bending-mode DOF of blade 2 (internal DOF index = DOF_BE(2,1)), m/s/s
         29    1.753E+01                                 T               2         First time derivative of First time derivative of 1st edgewise bending-mode DOF of blade 3 (internal DOF index = DOF_BE(3,1)), m/s/s
         30   -3.869E+00                                 T               2         First time derivative of First time derivative of 2nd flapwise bending-mode DOF of blade 1 (internal DOF index = DOF_BF(1,2)), m/s/s
         31   -3.184E+00                                 T               2         First time derivative of First time derivative of 2nd flapwise bending-mode DOF of blade 2 (internal DOF index = DOF_BF(2,2)), m/s/s
         32   -1.668E+00                                 T               2         First time derivative of First time derivative of 2nd flapwise bending-mode DOF of blade 3 (internal DOF index = DOF_BF(3,2)), m/s/s

Order of inputs:
     Column   Operating Point                     Rotating Frame? Derivative Order Description
   ---------- ---------------                     --------------- ---------------- -----------
          1    0.000E+00                                 T               0         Blade 1 pitch command, rad
          2    0.000E+00                                 T               0         Blade 2 pitch command, rad
          3    0.000E+00                                 T               0         Blade 3 pitch command, rad
          4   -4.410E+05                                 F               0         Yaw moment, Nm
          5    0.000E+00                                 F               0         Generator torque, Nm
          6    0.000E+00                                 F               0         Extended input: collective blade-pitch command, rad

Order of outputs:
        Row   Operating Point                     Rotating Frame? Derivative Order Description
   ---------- ---------------                     --------------- ---------------- -----------
          1    3.810E+00                                 T               0         OoPDefl1, (m)
          2   -6.467E-01                                 T               0         IPDefl1, (m)
          3    0.000E+00                                 T               0         TwstDefl1, (deg)
          4    0.000E+00                                 T               0         BldPitch1, (deg)
          5    7.276E+01                                 F               0         Azimuth, (deg)
          6    1.222E+01                                 F               0         RotSpeed, (rpm)
          7    1.183E+03                                 F               0         GenSpeed, (rpm)
          8    2.067E-01                                 F               0         TTDspFA, (m)
          9    5.066E-03                                 F               0         TTDspSS, (m)
         10    0.000E+00                                 F               0         TTDspTwst, (deg)
         11    2.152E+02                                 T               0         Spn2MLxb1, (kN-m)
         12    1.844E+03                                 T               0         Spn2MLyb1, (kN-m)
         13    1.777E+02                                 T               0         RootFxb1, (kN)
         14   -1.542E+02                                 T               0         RootFyb1, (kN)
         15    5.668E+02                                 T               0         RootFzb1, (kN)
         16    3.069E+03                                 T               0         RootMxb1, (kN-m)
         17    6.449E+03                                 T               0         RootMyb1, (kN-m)
         18   -5.517E+01                                 T               0         RootMzb1, (kN-m)
         19    4.792E+01                                 F               0         RotTorq, (kN-m)
         20   -7.597E+02                                 F               0         LSSGagMya, (kN-m)
         21    3.025E+03                                 F               0         LSSGagMza, (kN-m)
         22    4.294E+02                                 F               0         YawBrFxp, (kN)
         23    2.510E+00                                 F               0         YawBrFyp, (kN)
         24   -3.438E+03                                 F               0         YawBrFzp, (kN)
         25    8.310E+01                                 F               0         YawBrMxp, (kN-m)
         26   -1.015E+03                                 F               0         YawBrMyp, (kN-m)
         27    4.408E+02                                 F               0         YawBrMzp, (kN-m)
         28    3.845E+02                                 F               0         TwrBsFxt, (kN)
         29    1.464E+01                                 F               0         TwrBsFyt, (kN)
         30   -6.847E+03                                 F               0         TwrBsFzt, (kN)
         31   -1.004E+03                                 F               0         TwrBsMxt, (kN-m)
         32    3.468E+04                                 F               0         TwrBsMyt, (kN-m)
         33    4.408E+02                                 F               0         TwrBsMzt, (kN-m)


Linearized state matrices:

A: 32 x 32
    0.000E+00  0.000E+00  0.000E+00  0.000E+00  0.000E+00  0.000E+00  0.000E+00  0.000E+00  0.000E+00  0.000E+00  0.000E+00  0.000E+00  0.000E+00  0.000E+00  0.000E+00  0.000E+00  1.000E+00  0.000E+00  0.000E+00  0.000E+00  0.000E+00  0.000E+00  0.000E+00  0.000E+00  0.000E+00  0.000E+00  0.000E+00  0.000E+00  0.000E+00  0.000E+00  0.000E+00  0.000E+00
    0.000E+00  0.000E+00  0.000E+00  0.000E+00  0.000E+00  0.000E+00  0.000E+00  0.000E+00  0.000E+00  0.000E+00  0.000E+00  0.000E+00  0.000E+00  0.000E+00  0.000E+00  0.000E+00  0.000E+00  1.000E+00  0.000E+00  0.000E+00  0.000E+00  0.000E+00  0.000E+00  0.000E+00  0.000E+00  0.000E+00  0.000E+00  0.000E+00  0.000E+00  0.000E+00  0.000E+00  0.000E+00
    0.000E+00  0.000E+00  0.000E+00  0.000E+00  0.000E+00  0.000E+00  0.000E+00  0.000E+00  0.000E+00  0.000E+00  0.000E+00  0.000E+00  0.000E+00  0.000E+00  0.000E+00  0.000E+00  0.000E+00  0.000E+00  1.000E+00  0.000E+00  0.000E+00  0.000E+00  0.000E+00  0.000E+00  0.000E+00  0.000E+00  0.000E+00  0.000E+00  0.000E+00  0.000E+00  0.000E+00  0.000E+00
    0.000E+00  0.000E+00  0.000E+00  0.000E+00  0.000E+00  0.000E+00  0.000E+00  0.000E+00  0.000E+00  0.000E+00  0.000E+00  0.000E+00  0.000E+00  0.000E+00  0.000E+00  0.000E+00  0.000E+00  0.000E+00  0.000E+00  1.000E+00  0.000E+00  0.000E+00  0.000E+00  0.000E+00  0.000E+00  0.000E+00  0.000E+00  0.000E+00  0.000E+00  0.000E+00  0.000E+00  0.000E+00
    0.000E+00  0.000E+00  0.000E+00  0.000E+00  0.000E+00  0.000E+00  0.000E+00  0.000E+00  0.000E+00  0.000E+00  0.000E+00  0.000E+00  0.000E+00  0.000E+00  0.000E+00  0.000E+00  0.000E+00  0.000E+00  0.000E+00  0.000E+00  1.000E+00  0.000E+00  0.000E+00  0.000E+00  0.000E+00  0.000E+00  0.000E+00  0.000E+00  0.000E+00  0.000E+00  0.000E+00  0.000E+00
    0.000E+00  0.000E+00  0.000E+00  0.000E+00  0.000E+00  0.000E+00  0.000E+00  0.000E+00  0.000E+00  0.000E+00  0.000E+00  0.000E+00  0.000E+00  0.000E+00  0.000E+00  0.000E+00  0.000E+00  0.000E+00  0.000E+00  0.000E+00  0.000E+00  1.000E+00  0.000E+00  0.000E+00  0.000E+00  0.000E+00  0.000E+00  0.000E+00  0.000E+00  0.000E+00  0.000E+00  0.000E+00
    0.000E+00  0.000E+00  0.000E+00  0.000E+00  0.000E+00  0.000E+00  0.000E+00  0.000E+00  0.000E+00  0.000E+00  0.000E+00  0.000E+00  0.000E+00  0.000E+00  0.000E+00  0.000E+00  0.000E+00  0.000E+00  0.000E+00  0.000E+00  0.000E+00  0.000E+00  1.000E+00  0.000E+00  0.000E+00  0.000E+00  0.000E+00  0.000E+00  0.000E+00  0.000E+00  0.000E+00  0.000E+00
    0.000E+00  0.000E+00  0.000E+00  0.000E+00  0.000E+00  0.000E+00  0.000E+00  0.000E+00  0.000E+00  0.000E+00  0.000E+00  0.000E+00  0.000E+00  0.000E+00  0.000E+00  0.000E+00  0.000E+00  0.000E+00  0.000E+00  0.000E+00  0.000E+00  0.000E+00  0.000E+00  1.000E+00  0.000E+00  0.000E+00  0.000E+00  0.000E+00  0.000E+00  0.000E+00  0.000E+00  0.000E+00
    0.000E+00  0.000E+00  0.000E+00  0.000E+00  0.000E+00  0.000E+00  0.000E+00  0.000E+00  0.000E+00  0.000E+00  0.000E+00  0.000E+00  0.000E+00  0.000E+00  0.000E+00  0.000E+00  0.000E+00  0.000E+00  0.000E+00  0.000E+00  0.000E+00  0.000E+00  0.000E+00  0.000E+00  1.000E+00  0.000E+00  0.000E+00  0.000E+00  0.000E+00  0.000E+00  0.000E+00  0.000E+00
    0.000E+00  0.000E+00  0.000E+00  0.000E+00  0.000E+00  0.000E+00  0.000E+00  0.000E+00  0.000E+00  0.000E+00  0.000E+00  0.000E+00  0.000E+00  0.000E+00  0.000E+00  0.000E+00  0.000E+00  0.000E+00  0.000E+00  0.000E+00  0.000E+00  0.000E+00  0.000E+00  0.000E+00  0.000E+00  1.000E+00  0.000E+00  0.000E+00  0.000E+00  0.000E+00  0.000E+00  0.000E+00
    0.000E+00  0.000E+00  0.000E+00  0.000E+00  0.000E+00  0.000E+00  0.000E+00  0.000E+00  0.000E+00  0.000E+00  0.000E+00  0.000E+00  0.000E+00  0.000E+00  0.000E+00  0.000E+00  0.000E+00  0.000E+00  0.000E+00  0.000E+00  0.000E+00  0.000E+00  0.000E+00  0.000E+00  0.000E+00  0.000E+00  1.000E+00  0.000E+00  0.000E+00  0.000E+00  0.000E+00  0.000E+00
    0.000E+00  0.000E+00  0.000E+00  0.000E+00  0.000E+00  0.000E+00  0.000E+00  0.000E+00  0.000E+00  0.000E+00  0.000E+00  0.000E+00  0.000E+00  0.000E+00  0.000E+00  0.000E+00  0.000E+00  0.000E+00  0.000E+00  0.000E+00  0.000E+00  0.000E+00  0.000E+00  0.000E+00  0.000E+00  0.000E+00  0.000E+00  1.000E+00  0.000E+00  0.000E+00  0.000E+00  0.000E+00
    0.000E+00  0.000E+00  0.000E+00  0.000E+00  0.000E+00  0.000E+00  0.000E+00  0.000E+00  0.000E+00  0.000E+00  0.000E+00  0.000E+00  0.000E+00  0.000E+00  0.000E+00  0.000E+00  0.000E+00  0.000E+00  0.000E+00  0.000E+00  0.000E+00  0.000E+00  0.000E+00  0.000E+00  0.000E+00  0.000E+00  0.000E+00  0.000E+00  1.000E+00  0.000E+00  0.000E+00  0.000E+00
    0.000E+00  0.000E+00  0.000E+00  0.000E+00  0.000E+00  0.000E+00  0.000E+00  0.000E+00  0.000E+00  0.000E+00  0.000E+00  0.000E+00  0.000E+00  0.000E+00  0.000E+00  0.000E+00  0.000E+00  0.000E+00  0.000E+00  0.000E+00  0.000E+00  0.000E+00  0.000E+00  0.000E+00  0.000E+00  0.000E+00  0.000E+00  0.000E+00  0.000E+00  1.000E+00  0.000E+00  0.000E+00
    0.000E+00  0.000E+00  0.000E+00  0.000E+00  0.000E+00  0.000E+00  0.000E+00  0.000E+00  0.000E+00  0.000E+00  0.000E+00  0.000E+00  0.000E+00  0.000E+00  0.000E+00  0.000E+00  0.000E+00  0.000E+00  0.000E+00  0.000E+00  0.000E+00  0.000E+00  0.000E+00  0.000E+00  0.000E+00  0.000E+00  0.000E+00  0.000E+00  0.000E+00  0.000E+00  1.000E+00  0.000E+00
    0.000E+00  0.000E+00  0.000E+00  0.000E+00  0.000E+00  0.000E+00  0.000E+00  0.000E+00  0.000E+00  0.000E+00  0.000E+00  0.000E+00  0.000E+00  0.000E+00  0.000E+00  0.000E+00  0.000E+00  0.000E+00  0.000E+00  0.000E+00  0.000E+00  0.000E+00  0.000E+00  0.000E+00  0.000E+00  0.000E+00  0.000E+00  0.000E+00  0.000E+00  0.000E+00  0.000E+00  1.000E+00
   -4.570E+00 -1.763E-03  7.000E+01 -3.139E-01  1.855E-01 -3.179E-02 -3.732E+00  1.339E-01  5.020E-02  1.687E-01  1.582E-01  1.223E-02  6.679E-02 -6.022E-01 -3.441E-01 -7.120E-01 -1.571E-02 -3.370E-03  7.615E-02 -1.637E-01 -1.388E-01 -1.478E-01 -1.743E-01  3.990E-04 -2.863E-04  5.465E-04 -2.358E-04  3.837E-03 -1.603E-03 -4.880E-04  3.696E-04 -8.245E-04
   -1.922E-03 -4.218E+00 -4.724E+00  2.613E+00 -5.631E-01 -1.605E-01  4.340E+01 -3.053E-02 -1.290E-02  4.314E-02 -1.204E-01  3.438E-01 -2.148E-01  4.319E-02  5.948E-02 -1.016E-01 -2.128E-03 -1.462E-02 -1.047E-01  1.573E-02  3.816E-02  1.104E-02  3.231E-01  1.940E-03 -1.784E-04 -1.530E-03 -1.766E-02  4.524E-03  1.306E-02 -2.804E-03  9.566E-04  1.996E-03
   -5.402E-02 -1.173E-03 -3.049E+02 -2.083E-01  1.218E-02 -1.345E-02 -8.437E-02  1.601E-02 -4.238E-02  3.663E-02  3.515E-02 -3.719E-02  9.410E-03 -5.313E-02  1.224E-01 -1.166E-01 -1.920E-04 -3.348E-04 -3.144E-01 -1.632E-02 -1.012E-01 -6.579E-03 -7.087E-03  8.798E-05 -2.176E-04  1.528E-04 -2.591E-04  1.050E-03 -7.025E-04 -7.699E-05  2.596E-04 -2.146E-04
    1.440E-04 -1.276E-01 -1.392E-01 -3.431E+02  2.923E-02 -5.669E-03  2.287E+01 -1.034E-04 -6.309E-04  7.174E-04 -3.242E-03  1.098E-02 -7.474E-03 -1.214E-03  2.529E-03 -1.283E-03 -3.090E-05 -4.927E-04 -1.599E-03 -3.564E-01  8.274E-04  3.779E-04  1.642E-01  6.464E-05 -6.176E-06 -5.098E-05 -5.689E-04  1.458E-04  4.203E-04 -9.239E-05  3.137E-05  6.573E-05
    9.576E-05  5.862E-02  5.642E-02  3.394E+01  1.082E-01 -1.998E-01 -1.404E+01  2.591E-01 -7.013E-02 -1.915E-01  1.571E-01  7.487E-02 -2.327E-01 -7.813E-01  2.063E-01  5.743E-01  1.075E-02  2.978E-04  5.061E-01  3.964E-02  1.648E-02  1.009E-02 -8.914E-02  1.232E-03 -1.823E-04 -9.767E-04 -5.250E-03  1.342E-03  3.847E-03 -1.467E-03  4.518E-04  1.038E-03
   -8.291E-07  2.286E-03  2.632E-03  3.603E+00  6.832E-05 -8.607E-05  1.724E+02  2.405E-04 -5.366E-05 -1.888E-04  2.007E-04 -1.208E-04 -8.518E-05 -6.986E-04  1.462E-04  5.512E-04  1.048E-05  8.535E-06  4.959E-04  3.744E-03 -1.016E-04  2.762E-06  1.235E+00  1.748E-08 -6.115E-08 -1.863E-08  4.995E-06 -1.283E-06 -3.722E-06  2.456E-07 -1.260E-07 -1.803E-07
   -9.001E-03  2.185E-01 -8.860E-01  3.459E+02  5.420E-02 -7.784E-02 -3.719E+02  9.345E-02  6.572E-02  5.259E-02 -1.152E+00 -1.186E+00 -1.179E+00 -2.480E-01 -1.641E-01 -1.269E-01  1.043E-03  8.292E-04  4.942E-02  3.599E-01 -1.282E-02  9.391E-04 -2.663E+00 -1.872E-04 -3.093E-04 -2.387E-04 -1.300E-03 -1.654E-03 -2.018E-03 -4.254E-04 -6.213E-04 -5.824E-04
    1.527E+01 -3.199E+00  8.948E+03 -9.384E+01 -6.669E+00  2.211E+01  4.589E+03 -4.800E+01  6.613E+00  1.577E+01  7.116E+00  1.662E+01  4.550E+01  8.879E+01 -1.943E+01 -4.717E+01  3.611E+00 -2.318E-01  1.773E+02 -1.080E+01 -7.331E+01 -3.583E+00  2.915E+01 -1.581E-01  3.129E-02  9.520E-02  6.245E-01 -1.467E-01 -3.267E-01  1.940E-01 -4.172E-02 -8.302E-02
   -9.509E-01 -1.429E+00 -2.437E+04 -4.346E+02 -6.961E+00 -1.107E+01  3.190E+03  6.206E+00 -2.737E+01 -3.287E+00  2.966E+01  2.328E+01  1.794E+01 -1.963E+01  2.408E+01  8.831E+00 -8.253E-01  3.189E-01 -6.378E+01  1.527E+01  2.506E+02 -7.447E+00  1.548E+01  4.226E-02 -4.632E-02 -8.609E-03 -1.267E-01  2.610E-01  8.122E-02 -3.510E-02  9.388E-02  2.148E-02
    2.179E+01  4.694E+00  2.075E+04  5.287E+02  9.531E+00 -5.436E+00  2.563E+03  1.585E+01 -3.771E+00 -3.870E+01  3.150E+01  3.108E+01  6.151E+00 -4.731E+01  1.139E+01  6.135E+01 -2.683E+00 -3.929E-01 -1.086E+02 -1.930E+01 -1.675E+02 -4.411E+00  1.398E+01  8.565E-02  8.774E-03 -1.102E-01 -3.272E-01  4.089E-02  4.584E-01 -9.056E-02  2.557E-02  1.485E-01
    6.175E+00 -3.676E+00  4.930E+03 -6.341E+02 -1.137E+01 -1.247E+01 -1.477E+04  1.578E+00  7.873E+00  8.392E+00 -1.524E+02 -1.016E+02 -9.755E+01  1.374E+01 -2.027E+01 -2.203E+01  7.891E-01  3.589E-02  4.044E+01  1.641E+00 -1.301E+01  3.445E+00 -1.023E+02 -7.546E-02 -1.941E-02 -8.806E-03 -1.708E-01 -1.725E-01 -1.838E-01 -1.232E-01 -6.391E-02 -5.969E-02
   -1.178E+00  9.734E+00 -5.534E+03  2.081E+03  6.860E+01  8.502E+00 -1.517E+04  4.764E+00  6.000E+00  7.827E+00 -1.011E+02 -1.515E+02 -9.879E+01 -1.162E+01  9.192E-01 -2.085E+01 -2.640E-01  1.634E-01 -1.774E+01  8.455E+00  4.506E+01  2.104E+00 -1.066E+02 -2.707E-02 -1.020E-01 -8.052E-03 -8.366E-02 -2.334E-01 -2.101E-01 -2.419E-02 -1.757E-01 -6.360E-02
    1.575E+00 -6.491E+00  1.663E+03 -1.440E+03 -2.978E+01 -2.774E+01 -1.514E+04  1.167E+01  4.735E+00  1.705E+00 -9.794E+01 -9.869E+01 -1.546E+02 -3.244E+01 -1.114E+01  1.366E+01 -4.532E-01 -2.504E-02 -1.925E+01 -1.625E+00 -3.243E+01  2.768E+00 -1.055E+02  1.406E-02 -2.910E-02 -1.092E-01 -3.006E-01 -1.024E-01 -1.251E-01 -7.585E-02 -4.246E-02 -1.281E-01
   -1.425E+01  8.322E-01 -6.100E+03 -1.673E+02  3.325E+00 -1.638E+01 -2.408E+03  1.811E+01 -4.177E+00 -9.357E+00  1.027E+01 -7.730E+00 -2.508E+01 -2.101E+02  1.201E+01  2.770E+01 -2.136E+00 -3.995E-01 -1.049E+02 -1.972E+01  4.594E+01 -2.354E+01 -4.068E+01  5.297E-02 -1.913E-02 -5.627E-02 -3.572E-02  9.896E-02  1.996E-01 -1.817E-01  2.756E-02  5.017E-02
   -4.245E+00  1.327E+00  1.392E+04  3.637E+02  9.571E-01  7.303E+00 -1.571E+03 -3.825E+00  5.044E+00  2.187E+00 -1.525E+01  4.443E-01 -8.160E+00  1.181E+01 -1.712E+02 -6.236E+00  4.593E-01 -7.975E-01  3.648E+01 -3.858E+01 -1.450E+02 -2.501E+01 -3.632E+01 -2.523E-02 -7.234E-03  7.275E-03  8.358E-02  2.659E-01 -5.235E-02  2.239E-02 -9.413E-02 -1.390E-02
   -1.816E+01 -2.249E+00 -1.330E+04 -1.991E+02 -1.731E+00  3.732E+00 -1.216E+03 -9.427E+00  2.043E+00  1.276E+01 -1.631E+01 -1.649E+01  1.074E+01  2.786E+01 -6.467E+00 -1.932E+02  1.574E+00 -3.051E-01  6.347E+01 -1.465E+01  1.006E+02 -2.325E+01 -3.198E+01 -5.046E-02 -5.626E-03  3.254E-02  2.006E-01 -1.479E-02  8.183E-02  5.469E-02 -1.306E-02 -1.406E-01
B: 32 x 6
    0.000E+00  0.000E+00  0.000E+00  0.000E+00  0.000E+00  0.000E+00
    0.000E+00  0.000E+00  0.000E+00  0.000E+00  0.000E+00  0.000E+00
    0.000E+00  0.000E+00  0.000E+00  0.000E+00  0.000E+00  0.000E+00
    0.000E+00  0.000E+00  0.000E+00  0.000E+00  0.000E+00  0.000E+00
    0.000E+00  0.000E+00  0.000E+00  0.000E+00  0.000E+00  0.000E+00
    0.000E+00  0.000E+00  0.000E+00  0.000E+00  0.000E+00  0.000E+00
    0.000E+00  0.000E+00  0.000E+00  0.000E+00  0.000E+00  0.000E+00
    0.000E+00  0.000E+00  0.000E+00  0.000E+00  0.000E+00  0.000E+00
    0.000E+00  0.000E+00  0.000E+00  0.000E+00  0.000E+00  0.000E+00
    0.000E+00  0.000E+00  0.000E+00  0.000E+00  0.000E+00  0.000E+00
    0.000E+00  0.000E+00  0.000E+00  0.000E+00  0.000E+00  0.000E+00
    0.000E+00  0.000E+00  0.000E+00  0.000E+00  0.000E+00  0.000E+00
    0.000E+00  0.000E+00  0.000E+00  0.000E+00  0.000E+00  0.000E+00
    0.000E+00  0.000E+00  0.000E+00  0.000E+00  0.000E+00  0.000E+00
    0.000E+00  0.000E+00  0.000E+00  0.000E+00  0.000E+00  0.000E+00
    0.000E+00  0.000E+00  0.000E+00  0.000E+00  0.000E+00  0.000E+00