
Linearized model: Predictions were generated on 04-Mar-2024 at 11:06:45 using OpenFAST, compiled on Mar  4 2024 at 10:16:10 as a 64-bit application using double precision at commit v3.5.2-982-g1e454dbe
 linked with  NWTC Subroutine Library; ElastoDyn; InflowWind; AeroDyn; ServoDyn

Description from the FAST input file: NREL 5.0 MW Baseline Wind Turbine (Onshore), Linearization with AeroDyn + ED

Simulation information:
   Simulation time:                     1.0000 s
   Rotor Speed:                         1.2799 rad/s
   Azimuth:                             1.2699 rad
   Wind Speed:                          8.0000 m/s
   Number of continuous states:       260
   Number of discrete states:           0
   Number of constraint states:         0
   Number of inputs:                   69
   Number of outputs:                  38
   Jacobians included in this file?    No

Order of continuous states:
   Row/Column Operating Point                                                   Rotating Frame? Derivative Order Description
   ---------- ---------------                                                   --------------- ---------------- -----------
          1    2.067733815600E-001                                                     F               2         ED 1st tower fore-aft bending mode DOF (internal DOF index = DOF_TFA1), m
          2   -5.083437270967E-003                                                     F               2         ED 1st tower side-to-side bending mode DOF (internal DOF index = DOF_TSS1), m
          3   -5.796615076525E-005                                                     F               2         ED 2nd tower fore-aft bending mode DOF (internal DOF index = DOF_TFA2), m
          4    1.750931670309E-005                                                     F               2         ED 2nd tower side-to-side bending mode DOF (internal DOF index = DOF_TSS2), m
          5    4.930770979897E-005                                                     F               2         ED Nacelle yaw DOF (internal DOF index = DOF_Yaw), rad
          6    5.982212118046E+000                                                     F               2         ED Variable speed generator DOF (internal DOF index = DOF_GeAz), rad
          7    3.724513016535E-005                                                     F               2         ED Drivetrain rotational-flexibility DOF (internal DOF index = DOF_DrTr), rad
          8    3.820371250272E+000                                                     T               2         ED 1st flapwise bending-mode DOF of blade 1 (internal DOF index = DOF_BF(1,1)), m
          9    4.033822996080E+000                                                     T               2         ED 1st flapwise bending-mode DOF of blade 2 (internal DOF index = DOF_BF(2,1)), m
         10    3.642447200605E+000                                                     T               2         ED 1st flapwise bending-mode DOF of blade 3 (internal DOF index = DOF_BF(3,1)), m
         11   -1.676461863092E-001                                                     T               2         ED 1st edgewise bending-mode DOF of blade 1 (internal DOF index = DOF_BE(1,1)), m
         12    5.844199055166E-001                                                     T               2         ED 1st edgewise bending-mode DOF of blade 2 (internal DOF index = DOF_BE(2,1)), m
         13    1.957316017291E-001                                                     T               2         ED 1st edgewise bending-mode DOF of blade 3 (internal DOF index = DOF_BE(3,1)), m
         14    5.164065491567E-002                                                     T               2         ED 2nd flapwise bending-mode DOF of blade 1 (internal DOF index = DOF_BF(1,2)), m
         15    1.776147237834E-001                                                     T               2         ED 2nd flapwise bending-mode DOF of blade 2 (internal DOF index = DOF_BF(2,2)), m
         16    1.379141176071E-001                                                     T               2         ED 2nd flapwise bending-mode DOF of blade 3 (internal DOF index = DOF_BF(3,2)), m
         17    4.691246825148E-001                                                     F               2         ED First time derivative of 1st tower fore-aft bending mode DOF (internal DOF index = DOF_TFA1), m/s
         18    1.869617756274E-002                                                     F               2         ED First time derivative of 1st tower side-to-side bending mode DOF (internal DOF index = DOF_TSS1), m/s
         19    1.162920539790E-003                                                     F               2         ED First time derivative of 2nd tower fore-aft bending mode DOF (internal DOF index = DOF_TFA2), m/s
         20    1.145120574457E-004                                                     F               2         ED First time derivative of 2nd tower side-to-side bending mode DOF (internal DOF index = DOF_TSS2), m/s
         21   -2.165398253896E-004                                                     F               2         ED First time derivative of Nacelle yaw DOF (internal DOF index = DOF_Yaw), rad/s
         22    1.277394781167E+000                                                     F               2         ED First time derivative of Variable speed generator DOF (internal DOF index = DOF_GeAz), rad/s
         23    2.510079505669E-003                                                     F               2         ED First time derivative of Drivetrain rotational-flexibility DOF (internal DOF index = DOF_DrTr), rad/s
         24   -3.621943327181E-001                                                     T               2         ED First time derivative of 1st flapwise bending-mode DOF of blade 1 (internal DOF index = DOF_BF(1,1)), m/s
         25   -1.203009168681E+000                                                     T               2         ED First time derivative of 1st flapwise bending-mode DOF of blade 2 (internal DOF index = DOF_BF(2,1)), m/s
         26   -1.623310984738E+000                                                     T               2         ED First time derivative of 1st flapwise bending-mode DOF of blade 3 (internal DOF index = DOF_BF(3,1)), m/s
         27    1.695496102590E-001                                                     T               2         ED First time derivative of 1st edgewise bending-mode DOF of blade 1 (internal DOF index = DOF_BE(1,1)), m/s
         28   -1.281927980349E+000                                                     T               2         ED First time derivative of 1st edgewise bending-mode DOF of blade 2 (internal DOF index = DOF_BE(2,1)), m/s
         29    3.980651840121E-001                                                     T               2         ED First time derivative of 1st edgewise bending-mode DOF of blade 3 (internal DOF index = DOF_BE(3,1)), m/s
         30   -1.557718405823E-001                                                     T               2         ED First time derivative of 2nd flapwise bending-mode DOF of blade 1 (internal DOF index = DOF_BF(1,2)), m/s
         31   -4.860967721403E-001                                                     T               2         ED First time derivative of 2nd flapwise bending-mode DOF of blade 2 (internal DOF index = DOF_BF(2,2)), m/s
         32   -2.082507312136E-001                                                     T               2         ED First time derivative of 2nd flapwise bending-mode DOF of blade 3 (internal DOF index = DOF_BF(3,2)), m/s
         33   -7.915388158677E+000                                                     T               2         AD vind (axial) at blade 1, node 1, m/s
         34    0.000000000000E+000                                                     T               2         AD vind (tangential) at blade 1, node 1, m/s
         35    0.000000000000E+000                                                     T               2         AD vind (axial) at blade 1, node 2, m/s
         36    0.000000000000E+000                                                     T               2         AD vind (tangential) at blade 1, node 2, m/s
         37    0.000000000000E+000                                                     T               2         AD vind (axial) at blade 1, node 3, m/s
         38    0.000000000000E+000                                                     T               2         AD vind (tangential) at blade 1, node 3, m/s
         39    0.000000000000E+000                                                     T               2         AD vind (axial) at blade 1, node 4, m/s
         40    0.000000000000E+000                                                     T               2         AD vind (tangential) at blade 1, node 4, m/s
         41   -2.217524177896E+000                                                     T               2         AD vind (axial) at blade 1, node 5, m/s
         42    8.015425026852E-001                                                     T               2         AD vind (tangential) at blade 1, node 5, m/s
         43   -2.072355658293E+000                                                     T               2         AD vind (axial) at blade 1, node 6, m/s
         44    5.830412335204E-001                                                     T               2         AD vind (tangential) at blade 1, node 6, m/s
         45   -1.839136985352E+000                                                     T               2         AD vind (axial) at blade 1, node 7, m/s
         46    4.311432962743E-001                                                     T               2         AD vind (tangential) at blade 1, node 7, m/s
         47   -1.867570254800E+000                                                     T               2         AD vind (axial) at blade 1, node 8, m/s
         48    3.613928575636E-001                                                     T               2         AD vind (tangential) at blade 1, node 8, m/s
         49   -2.270010063828E+000                                                     T               2         AD vind (axial) at blade 1, node 9, m/s
         50    3.477764578629E-001                                                     T               2         AD vind (tangential) at blade 1, node 9, m/s
         51   -2.435350670250E+000                                                     T               2         AD vind (axial) at blade 1, node 10, m/s
         52    3.128184291662E-001                                                     T               2         AD vind (tangential) at blade 1, node 10, m/s
         53   -3.016255188911E+000                                                     T               2         AD vind (axial) at blade 1, node 11, m/s
         54    3.007284159408E-001                                                     T               2         AD vind (tangential) at blade 1, node 11, m/s
         55   -3.446924853888E+000                                                     T               2         AD vind (axial) at blade 1, node 12, m/s
         56    2.785419036642E-001                                                     T               2         AD vind (tangential) at blade 1, node 12, m/s
         57   -3.432848635992E+000                                                     T               2         AD vind (axial) at blade 1, node 13, m/s
         58    2.458896562161E-001                                                     T               2         AD vind (tangential) at blade 1, node 13, m/s
         59   -3.710856023779E+000                                                     T               2         AD vind (axial) at blade 1, node 14, m/s
         60    2.268482252102E-001                                                     T               2         AD vind (tangential) at blade 1, node 14, m/s
         61   -4.048444138238E+000                                                     T               2         AD vind (axial) at blade 1, node 15, m/s
         62    2.084594417053E-001                                                     T               2         AD vind (tangential) at blade 1, node 15, m/s
         63   -4.235304441605E+000                                                     T               2         AD vind (axial) at blade 1, node 16, m/s
         64    1.991361968235E-001                                                     T               2         AD vind (tangential) at blade 1, node 16, m/s
         65   -4.242054641181E+000                                                     T               2         AD vind (axial) at blade 1, node 17, m/s
         66    1.927460561300E-001                                                     T               2         AD vind (tangential) at blade 1, node 17, m/s
         67   -3.845845466257E+000                                                     T               2         AD vind (axial) at blade 1, node 18, m/s
         68    1.801551275085E-001                                                     T               2         AD vind (tangential) at blade 1, node 18, m/s
         69   -6.079911883020E+000                                                     T               2         AD vind (axial) at blade 1, node 19, m/s
         70    0.000000000000E+000                                                     T               2         AD vind (tangential) at blade 1, node 19, m/s
         71   -7.714148901892E+000                                                     T               2         AD vind (axial) at blade 2, node 1, m/s
         72    0.000000000000E+000                                                     T               2         AD vind (tangential) at blade 2, node 1, m/s
         73    0.000000000000E+000                                                     T               2         AD vind (axial) at blade 2, node 2, m/s
         74    0.000000000000E+000                                                     T               2         AD vind (tangential) at blade 2, node 2, m/s
         75    0.000000000000E+000                                                     T               2         AD vind (axial) at blade 2, node 3, m/s
         76    0.000000000000E+000                                                     T               2         AD vind (tangential) at blade 2, node 3, m/s
         77    0.000000000000E+000                                                     T               2         AD vind (axial) at blade 2, node 4, m/s
         78    0.000000000000E+000                                                     T               2         AD vind (tangential) at blade 2, node 4, m/s
         79   -2.193983609099E+000                                                     T               2         AD vind (axial) at blade 2, node 5, m/s
         80    7.688295112214E-001                                                     T               2         AD vind (tangential) at blade 2, node 5, m/s
         81   -2.048215001460E+000                                                     T               2         AD vind (axial) at blade 2, node 6, m/s
         82    5.654686757470E-001                                                     T               2         AD vind (tangential) at blade 2, node 6, m/s
         83   -1.822758934023E+000                                                     T               2         AD vind (axial) at blade 2, node 7, m/s
         84    4.214161946798E-001                                                     T               2         AD vind (tangential) at blade 2, node 7, m/s
         85   -1.860961824734E+000                                                     T               2         AD vind (axial) at blade 2, node 8, m/s
         86    3.562393324153E-001                                                     T               2         AD vind (tangential) at blade 2, node 8, m/s
         87   -2.276224057546E+000                                                     T               2         AD vind (axial) at blade 2, node 9, m/s
         88    3.457920486910E-001                                                     T               2         AD vind (tangential) at blade 2, node 9, m/s
         89   -2.446231015065E+000                                                     T               2         AD vind (axial) at blade 2, node 10, m/s
         90    3.128089883850E-001                                                     T               2         AD vind (tangential) at blade 2, node 10, m/s
         91   -3.031210901412E+000                                                     T               2         AD vind (axial) at blade 2, node 11, m/s
         92    3.025305792845E-001                                                     T               2         AD vind (tangential) at blade 2, node 11, m/s
         93   -3.458011726087E+000                                                     T               2         AD vind (axial) at blade 2, node 12, m/s
         94    2.818232889026E-001                                                     T               2         AD vind (tangential) at blade 2, node 12, m/s
         95   -3.426796858555E+000                                                     T               2         AD vind (axial) at blade 2, node 13, m/s
         96    2.504798217100E-001                                                     T               2         AD vind (tangential) at blade 2, node 13, m/s
         97   -3.680240183264E+000                                                     T               2         AD vind (axial) at blade 2, node 14, m/s
         98    2.328271759382E-001                                                     T               2         AD vind (tangential) at blade 2, node 14, m/s
         99   -3.935435068455E+000                                                     T               2         AD vind (axial) at blade 2, node 15, m/s
        100    2.172266426694E-001                                                     T               2         AD vind (tangential) at blade 2, node 15, m/s
        101   -3.974664629794E+000                                                     T               2         AD vind (axial) at blade 2, node 16, m/s
        102    2.107461536020E-001                                                     T               2         AD vind (tangential) at blade 2, node 16, m/s
        103   -3.923473987630E+000                                                     T               2         AD vind (axial) at blade 2, node 17, m/s
        104    1.873131763693E-001                                                     T               2         AD vind (tangential) at blade 2, node 17, m/s
        105   -3.568798768927E+000                                                     T               2         AD vind (axial) at blade 2, node 18, m/s
        106    1.713677496229E-001                                                     T               2         AD vind (tangential) at blade 2, node 18, m/s
        107   -6.369506249635E+000                                                     T               2         AD vind (axial) at blade 2, node 19, m/s
        108    0.000000000000E+000                                                     T               2         AD vind (tangential) at blade 2, node 19, m/s
        109   -7.846830637366E+000                                                     T               2         AD vind (axial) at blade 3, node 1, m/s
        110    0.000000000000E+000                                                     T               2         AD vind (tangential) at blade 3, node 1, m/s
        111    0.000000000000E+000                                                     T               2         AD vind (axial) at blade 3, node 2, m/s
        112    0.000000000000E+000                                                     T               2         AD vind (tangential) at blade 3, node 2, m/s
        113    0.000000000000E+000                                                     T               2         AD vind (axial) at blade 3, node 3, m/s
        114    0.000000000000E+000                                                     T               2         AD vind (tangential) at blade 3, node 3, m/s
        115    0.000000000000E+000                                                     T               2         AD vind (axial) at blade 3, node 4, m/s
        116    0.000000000000E+000                                                     T               2         AD vind (tangential) at blade 3, node 4, m/s
        117   -2.237245107637E+000                                                     T               2         AD vind (axial) at blade 3, node 5, m/s
        118    8.525786054937E-001                                                     T               2         AD vind (tangential) at blade 3, node 5, m/s
        119   -2.113077890986E+000                                                     T               2         AD vind (axial) at blade 3, node 6, m/s
        120    6.153741954717E-001                                                     T               2         AD vind (tangential) at blade 3, node 6, m/s
        121   -1.874782127869E+000                                                     T               2         AD vind (axial) at blade 3, node 7, m/s
        122    4.511353436030E-001                                                     T               2         AD vind (tangential) at blade 3, node 7, m/s
        123   -1.891109465507E+000                                                     T               2         AD vind (axial) at blade 3, node 8, m/s
        124    3.740999946206E-001                                                     T               2         AD vind (tangential) at blade 3, node 8, m/s
        125   -2.273918742819E+000                                                     T               2         AD vind (axial) at blade 3, node 9, m/s
        126    3.559572865870E-001                                                     T               2         AD vind (tangential) at blade 3, node 9, m/s
        127   -2.432347560119E+000                                                     T               2         AD vind (axial) at blade 3, node 10, m/s
        128    3.189003992299E-001                                                     T               2         AD vind (tangential) at blade 3, node 10, m/s
        129   -2.994676078787E+000                                                     T               2         AD vind (axial) at blade 3, node 11, m/s
        130    3.058134597797E-001                                                     T               2         AD vind (tangential) at blade 3, node 11, m/s
        131   -3.419034528131E+000                                                     T               2         AD vind (axial) at blade 3, node 12, m/s
        132    2.830734969645E-001                                                     T               2         AD vind (tangential) at blade 3, node 12, m/s
        133   -3.398991503961E+000                                                     T               2         AD vind (axial) at blade 3, node 13, m/s
        134    2.502247609174E-001                                                     T               2         AD vind (tangential) at blade 3, node 13, m/s
        135   -3.672425854289E+000                                                     T               2         AD vind (axial) at blade 3, node 14, m/s
        136    2.315133370696E-001                                                     T               2         AD vind (tangential) at blade 3, node 14, m/s
        137   -3.986967393584E+000                                                     T               2         AD vind (axial) at blade 3, node 15, m/s
        138    2.144544812135E-001                                                     T               2         AD vind (tangential) at blade 3, node 15, m/s
        139   -4.110265211124E+000                                                     T               2         AD vind (axial) at blade 3, node 16, m/s
        140    2.067717488196E-001                                                     T               2         AD vind (tangential) at blade 3, node 16, m/s
        141   -4.096500629001E+000                                                     T               2         AD vind (axial) at blade 3, node 17, m/s
        142    2.022773643875E-001                                                     T               2         AD vind (tangential) at blade 3, node 17, m/s
        143   -3.736687825826E+000                                                     T               2         AD vind (axial) at blade 3, node 18, m/s
        144    1.715018213366E-001                                                     T               2         AD vind (tangential) at blade 3, node 18, m/s
        145   -6.349690045743E+000                                                     T               2         AD vind (axial) at blade 3, node 19, m/s
        146    0.000000000000E+000                                                     T               2         AD vind (tangential) at blade 3, node 19, m/s
        147   -3.175832759059E+000                                                     T               2         AD First time derivative of vind (axial) at blade 1, node 1, m/s/s
        148    0.000000000000E+000                                                     T               2         AD First time derivative of vind (tangential) at blade 1, node 1, m/s/s
        149    0.000000000000E+000                                                     T               2         AD First time derivative of vind (axial) at blade 1, node 2, m/s/s
        150    0.000000000000E+000                                                     T               2         AD First time derivative of vind (tangential) at blade 1, node 2, m/s/s
        151    0.000000000000E+000                                                     T               2         AD First time derivative of vind (axial) at blade 1, node 3, m/s/s
        152    0.000000000000E+000                                                     T               2         AD First time derivative of vind (tangential) at blade 1, node 3, m/s/s
        153    0.000000000000E+000                                                     T               2         AD First time derivative of vind (axial) at blade 1, node 4, m/s/s
        154    0.000000000000E+000                                                     T               2         AD First time derivative of vind (tangential) at blade 1, node 4, m/s/s
        155   -8.915110420252E-001                                                     T               2         AD First time derivative of vind (axial) at blade 1, node 5, m/s/s
        156    3.239226070090E-001                                                     T               2         AD First time derivative of vind (tangential) at blade 1, node 5, m/s/s
        157   -8.352391560591E-001                                                     T               2         AD First time derivative of vind (axial) at blade 1, node 6, m/s/s
        158    2.361822160744E-001                                                     T               2         AD First time derivative of vind (tangential) at blade 1, node 6, m/s/s
        159   -7.431482596395E-001                                                     T               2         AD First time derivative of vind (axial) at blade 1, node 7, m/s/s
        160    1.752164255005E-001                                                     T               2         AD First time derivative of vind (tangential) at blade 1, node 7, m/s/s
        161   -7.557771028250E-001                                                     T               2         AD First time derivative of vind (axial) at blade 1, node 8, m/s/s
        162    1.473253201185E-001                                                     T               2         AD First time derivative of vind (tangential) at blade 1, node 8, m/s/s
        163   -9.173854389370E-001                                                     T               2         AD First time derivative of vind (axial) at blade 1, node 9, m/s/s
        164    1.420892835204E-001                                                     T               2         AD First time derivative of vind (tangential) at blade 1, node 9, m/s/s
        165   -9.851620103794E-001                                                     T               2         AD First time derivative of vind (axial) at blade 1, node 10, m/s/s
        166    1.285262240801E-001                                                     T               2         AD First time derivative of vind (tangential) at blade 1, node 10, m/s/s
        167   -1.215146105762E+000                                                     T               2         AD First time derivative of vind (axial) at blade 1, node 11, m/s/s
        168    1.244559180115E-001                                                     T               2         AD First time derivative of vind (tangential) at blade 1, node 11, m/s/s
        169   -1.387984413945E+000                                                     T               2         AD First time derivative of vind (axial) at blade 1, node 12, m/s/s
        170    1.163884513012E-001                                                     T               2         AD First time derivative of vind (tangential) at blade 1, node 12, m/s/s