
Predictions were generated on 05-Feb-2026 at 16:50:38 using FAST.Farm, compiled on Feb  5 2026 at 14:22:10 as a 64-bit application using double precision at commit HEAD-HASH-NOTFOUND and with OpenMP
 linked with  NWTC Subroutine Library

Description from the FAST.Farm input file: Simulation with one turbine using precursor VTK

Time                	W1VAmbx             	RtVRelT1            	YawErrT1            	TIAmbT1             	CtT1N02             	CtT1N03             	CtT1N04             	CtT1N05             	CtT1N06             	WkAxsXT1D1          	WkAxsXT1D2          	WkAxsYT1D1          	WkAxsYT1D2          	WkAxsZT1D1          	WkAxsZT1D2          	WkPosXT1D1          	WkPosXT1D2          	WkPosYT1D1          	WkPosYT1D2          	WkPosZT1D1          	WkPosZT1D2          	WkDfVxT1N01D1       	WkDfVxT1N02D1       	WkDfVxT1N03D1       	WkDfVxT1N04D1       	WkDfVxT1N05D1       	WkDfVxT1N06D1       	WkDfVxT1N07D1       	WkDfVxT1N01D2       	WkDfVxT1N02D2       	WkDfVxT1N03D2       	WkDfVxT1N04D2       	WkDfVxT1N05D2       	WkDfVxT1N06D2       	WkDfVxT1N07D2       	WkDfVrT1N01D1       	WkDfVrT1N02D1       	WkDfVrT1N03D1       	WkDfVrT1N04D1       	WkDfVrT1N05D1       	WkDfVrT1N06D1       	WkDfVrT1N07D1       	WkDfVrT1N01D2       	WkDfVrT1N02D2       	WkDfVrT1N03D2       	WkDfVrT1N04D2       	WkDfVrT1N05D2       	WkDfVrT1N06D2       	WkDfVrT1N07D2       
(s)                 	(m/s)        	(m/s)        	(deg)        	(percent)    	(-)          	(-)          	(-)          	(-)          	(-)          	(-)          	(-)          	(-)          	(-)          	(-)          	(-)          	(m)          	(m)          	(m)          	(m)          	(m)          	(m)          	(m/s)        	(m/s)        	(m/s)        	(m/s)        	(m/s)        	(m/s)        	(m/s)        	(m/s)        	(m/s)        	(m/s)        	(m/s)        	(m/s)        	(m/s)        	(m/s)        	(m/s)        	(m/s)        	(m/s)        	(m/s)        	(m/s)        	(m/s)        	(m/s)        	(m/s)        	(m/s)        	(m/s)        	(m/s)        	(m/s)        	(m/s)        	(m/s)        
    0.0000	8.11987972	8.02585316	0.262263149	9.53005409	0.464708060	0.742972195	0.846820474	-0.246556563E-3	-0.102885929E-5	0.00000000	0.00000000	0.00000000	0.00000000	0.00000000	0.00000000	0.00000000	0.00000000	0.00000000	0.00000000	0.00000000	0.00000000	0.00000000	0.00000000	0.00000000	0.00000000	0.00000000	0.00000000	0.00000000	0.00000000	0.00000000	0.00000000	0.00000000	0.00000000	0.00000000	0.00000000	0.00000000	0.00000000	0.00000000	0.00000000	0.00000000	0.00000000	0.00000000	0.00000000	0.00000000	0.00000000	0.00000000	0.00000000	0.00000000	0.00000000
    3.0000	7.77075338	8.29220581	1.15139186	9.42936897	0.449937224	0.740683138	0.812125623	-0.236812077E-3	-0.988196462E-6	0.00000000	0.00000000	0.00000000	0.00000000	0.00000000	0.00000000	0.00000000	0.00000000	0.00000000	0.00000000	0.00000000	0.00000000	0.00000000	0.00000000	0.00000000	0.00000000	0.00000000	0.00000000	0.00000000	0.00000000	0.00000000	0.00000000	0.00000000	0.00000000	0.00000000	0.00000000	0.00000000	0.00000000	0.00000000	0.00000000	0.00000000	0.00000000	0.00000000	0.00000000	0.00000000	0.00000000	0.00000000	0.00000000	0.00000000	0.00000000
    6.0000	7.48410130	8.11132908	1.89210367	9.35555744	0.460969090	0.750004530	0.834032834	-0.244224881E-3	-0.101912940E-5	0.00000000	0.00000000	0.00000000	0.00000000	0.00000000	0.00000000	0.00000000	0.00000000	0.00000000	0.00000000	0.00000000	0.00000000	0.00000000	0.00000000	0.00000000	0.00000000	0.00000000	0.00000000	0.00000000	0.00000000	0.00000000	0.00000000	0.00000000	0.00000000	0.00000000	0.00000000	0.00000000	0.00000000	0.00000000	0.00000000	0.00000000	0.00000000	0.00000000	0.00000000	0.00000000	0.00000000	0.00000000	0.00000000	0.00000000	0.00000000
    9.0000	7.38111782	7.94281197	2.25388479	9.50180626	0.469083607	0.765083015	0.849961460	-0.242975089E-3	-0.101391413E-5	0.00000000	0.00000000	0.00000000	0.00000000	0.00000000	0.00000000	0.00000000	0.00000000	0.00000000	0.00000000	0.00000000	0.00000000	0.00000000	0.00000000	0.00000000	0.00000000	0.00000000	0.00000000	0.00000000	0.00000000	0.00000000	0.00000000	0.00000000	0.00000000	0.00000000	0.00000000	0.00000000	0.00000000	0.00000000	0.00000000	0.00000000	0.00000000	0.00000000	0.00000000	0.00000000	0.00000000	0.00000000	0.00000000	0.00000000	0.00000000
   12.0000	7.53224373	7.79913187	3.55516863	9.55639744	0.450331926	0.746470034	0.883372545	-0.261777372E-3	-0.109237442E-5	0.00000000	0.00000000	0.00000000	0.00000000	0.00000000	0.00000000	0.00000000	0.00000000	0.00000000	0.00000000	0.00000000	0.00000000	0.00000000	0.00000000	0.00000000	0.00000000	0.00000000	0.00000000	0.00000000	0.00000000	0.00000000	0.00000000	0.00000000	0.00000000	0.00000000	0.00000000	0.00000000	0.00000000	0.00000000	0.00000000	0.00000000	0.00000000	0.00000000	0.00000000	0.00000000	0.00000000	0.00000000	0.00000000	0.00000000	0.00000000
   15.0000	7.24159527	7.55234766	1.71813536	9.41782761	0.446412235	0.734410107	0.916658401	-0.266331452E-3	-0.111137820E-5	0.00000000	0.00000000	0.00000000	0.00000000	0.00000000	0.00000000	0.00000000	0.00000000	0.00000000	0.00000000	0.00000000	0.00000000	0.00000000	0.00000000	0.00000000	0.00000000	0.00000000	0.00000000	0.00000000	0.00000000	0.00000000	0.00000000	0.00000000	0.00000000	0.00000000	0.00000000	0.00000000	0.00000000	0.00000000	0.00000000	0.00000000	0.00000000	0.00000000	0.00000000	0.00000000	0.00000000	0.00000000	0.00000000	0.00000000	0.00000000
   18.0000	7.00108099	7.40377760	2.04448724	9.48674202	0.464900136	0.768829942	0.902441084	-0.254875544E-3	-0.106357379E-5	0.996194720	0.00000000	0.108767960E-32	0.00000000	-0.871557444E-1	0.00000000	1121.48877	0.00000000	1001.30316	0.00000000	90.0849609	0.00000000	-2.12570333	-2.64639735	-3.54970837	-3.43340778	-0.326334298	-0.205427804E-2	-0.663061229E-16	0.00000000	0.00000000	0.00000000	0.00000000	0.00000000	0.00000000	0.00000000	0.00000000	0.337221958E-1	0.246418305E-1	-0.946264863E-1	-0.158572346	-0.115820661	-0.622439757E-1	0.00000000	0.00000000	0.00000000	0.00000000	0.00000000	0.00000000	0.00000000
   21.0000	6.98257017	7.43276215	2.14118552	9.36302090	0.451256245	0.748600662	0.896977603	-0.256256812E-3	-0.106933771E-5	0.996194720	0.00000000	0.108767960E-32	0.00000000	-0.871557444E-1	0.00000000	1121.56567	0.00000000	1001.36743	0.00000000	90.9649734	0.00000000	-2.22269678	-2.68868518	-3.54559588	-3.35450935	-0.343211204	-0.289904373E-2	-0.721775171E-16	0.00000000	0.00000000	0.00000000	0.00000000	0.00000000	0.00000000	0.00000000	0.00000000	0.310167223E-1	0.247542523E-1	-0.925154313E-1	-0.143963724	-0.103741355	-0.556945242E-1	0.00000000	0.00000000	0.00000000	0.00000000	0.00000000	0.00000000	0.00000000
   24.0000	7.01249695	7.32059288	0.562107146	9.25147152	0.451226592	0.741362691	0.942825675	-0.276131846E-3	-0.115227442E-5	0.996194720	0.00000000	0.108767960E-32	0.00000000	-0.871557444E-1	0.00000000	1121.66333	0.00000000	1001.53967	0.00000000	92.0809937	0.00000000	-2.30519891	-2.72517991	-3.54250050	-3.28807735	-0.358495116	-0.371283689E-2	-0.694755680E-16	0.00000000	0.00000000	0.00000000	0.00000000	0.00000000	0.00000000	0.00000000	0.00000000	0.288355686E-1	0.246618520E-1	-0.903916433E-1	-0.132534355	-0.943684056E-1	-0.506030470E-1	0.00000000	0.00000000	0.00000000	0.00000000	0.00000000	0.00000000	0.00000000
   27.0000	7.32722998	7.09884834	1.10763955	8.99972725	0.452632099	0.754094541	0.941189587	-0.262052024E-3	-0.109352061E-5	0.996194720	0.996194720	0.108767960E-32	0.108767960E-32	-0.871557444E-1	-0.871557444E-1	1121.75928	1184.59827	1001.72754	1000.78723	93.1776199	88.5859070	-2.29498672	-2.72104621	-3.54292560	-3.29802608	-0.357294500	-0.362677150E-2	-0.686861664E-16	-2.58076644	-2.87215400	-3.52559471	-3.01871228	-0.395709574	-0.906524342E-2	-0.947191946E-15	0.00000000	0.290882252E-1	0.246760696E-1	-0.904252902E-1	-0.133394584	-0.950068384E-1	-0.509502664E-1	0.00000000	0.230428297E-1	0.219222419E-1	-0.824006125E-1	-0.103264198	-0.713845044E-1	-0.380153656E-1
   30.0000	7.49275112	7.07495165	0.861890793	9.53052235	0.456240982	0.739590883	0.953752756	-0.274429418E-3	-0.114517036E-5	0.996097863	0.996194720	-0.247186454E-4	0.108767960E-32	-0.882556140E-1	-0.871557444E-1	1121.99365	1184.68909	1000.44025	1000.79730	94.9535599	89.6247177	-2.31366277	-2.75262022	-3.59435511	-3.20282125	-0.306411654	-0.280415989E-2	-0.140766546E-17	-2.62743950	-2.90104914	-3.52126217	-2.98134351	-0.407085896	-0.108081978E-1	-0.280642535E-14	0.00000000	0.299390107E-1	0.248535909E-1	-0.983241275E-1	-0.131234854	-0.944101512E-1	-0.506750233E-1	0.00000000	0.219445005E-1	0.209692214E-1	-0.796242729E-1	-0.977919176E-1	-0.669485405E-1	-0.355598219E-1
   33.0000	7.33954620	7.13968992	-0.961017072	10.1468010	0.451994598	0.744835854	0.934713066	-0.271815748E-3	-0.113426381E-5	0.996025264	0.996194720	-0.138291807E-4	0.108767960E-32	-0.890712291E-1	-0.871557444E-1	1122.19055	1184.82178	999.567505	1000.85095	96.4986877	91.1407242	-2.32043123	-2.75731063	-3.57921004	-3.18934536	-0.310002059	-0.277639320E-2	-0.527055498E-16	-2.67110729	-2.92760491	-3.51753330	-2.94658446	-0.417744637	-0.124363955E-1	-0.603063191E-14	0.00000000	0.295998938E-1	0.234358106E-1	-0.936898738E-1	-0.127926990	-0.915641785E-1	-0.491433963E-1	0.00000000	0.209409297E-1	0.201379731E-1	-0.772652775E-1	-0.930209160E-1	-0.631083250E-1	-0.334297828E-1
   36.0000	6.89801264	7.11475945	-3.19359827	10.3602810	0.468409747	0.758180082	0.903838277	-0.261038600E-3	-0.108929157E-5	0.995994091	0.996194720	-0.314330214E-5	0.108767960E-32	-0.894189849E-1	-0.871557444E-1	1122.28467	1185.00061	999.485413	1000.86273	97.2464523	93.1850967	-2.31326842	-2.75572801	-3.59765887	-3.26121068	-0.338979751	-0.313656661E-2	-0.693694507E-16	-2.70990849	-2.95144200	-3.51470947	-2.91578221	-0.427233517	-0.138702551E-1	-0.336342405E-14	0.00000000	0.302417241E-1	0.250791442E-1	-0.984814987E-1	-0.140782341	-0.101898998	-0.546898879E-1	0.00000000	0.200565662E-1	0.194108374E-1	-0.752193704E-1	-0.889604390E-1	-0.598666929E-1	-0.316277444E-1
   39.0000	6.66092968	7.17952299	-3.57952046	10.8481226	0.480565548	0.755152762	0.865403712	-0.240791313E-3	-0.100480145E-5	0.995977461	0.996194720	-0.688297177E-5	0.108767960E-32	-0.896038413E-1	-0.871557444E-1	1122.35278	1185.24048	998.509338	999.635254	97.8472900	95.9274368	-2.25209785	-2.69012642	-3.53712511	-3.29084492	-0.360436469	-0.349753303E-2	-0.783749395E-16	-2.69870901	-2.94445777	-3.51608038	-2.92744207	-0.425624430	-0.134073403E-1	-0.284773049E-14	0.00000000	0.298242606E-1	0.259146933E-1	-0.965359285E-1	-0.143449977	-0.103733756	-0.556574948E-1	0.00000000	0.203072894E-1	0.196597688E-1	-0.756699517E-1	-0.899417251E-1	-0.605993271E-1	-0.320367552E-1
   42.0000	6.46116924	7.11579895	-4.66780567	10.9582930	0.465680003	0.764394939	0.889005959	-0.243236645E-3	-0.101500564E-5	0.995960772	0.996088743	0.184795081E-4	-0.270305700E-4	-0.897891149E-1	-0.883584768E-1	1122.49463	1185.49634	996.039001	998.179688	99.2668457	97.7480850	-2.12959409	-2.56176066	-3.41029024	-3.30947518	-0.377196908	-0.372309354E-2	-0.100359038E-15	-2.73158646	-2.98363185	-3.55717850	-2.83438301	-0.372106701	-0.105301477E-1	-0.189320334E-14	0.00000000	0.288945381E-1	0.265359823E-1	-0.922456086E-1	-0.145222455	-0.104999885	-0.563254319E-1	0.00000000	0.207714960E-1	0.187804624E-1	-0.800457299E-1	-0.880491436E-1	-0.599756651E-1	-0.318204202E-1
   45.0000	6.42263651	7.06257772	-4.84569597	11.1794872	0.455084771	0.766582906	0.937395990	-0.282251713E-3	-0.117781212E-5	0.995940626	0.996023774	0.637939884E-4	-0.134065822E-4	-0.900125504E-1	-0.890879035E-1	1122.72266	1185.64746	992.760620	997.670532	101.590134	98.7823334	-2.05801082	-2.49544549	-3.36646342	-3.34840131	-0.389526874	-0.370166241E-2	-0.982457303E-16	-2.73185968	-2.97927141	-3.53561354	-2.83449435	-0.380815476	-0.108632753E-1	-0.207658280E-14	0.00000000	0.287995525E-1	0.278045703E-1	-0.941926166E-1	-0.151251078	-0.110068187	-0.590557642E-1	0.00000000	0.202917885E-1	0.180230569E-1	-0.773325935E-1	-0.868195593E-1	-0.588431172E-1	-0.311968718E-1
   48.0000	6.29354429	6.87023163	-1.37109494	11.3354445	0.413991868	0.786170185	0.959192812	-0.266520045E-3	-0.111216525E-5	0.995928526	0.995995581	-0.209353693E-4	-0.374893125E-5	-0.901461840E-1	-0.894026607E-1	1122.76306	1185.82837	988.875366	996.262878	101.939697	100.495171	-2.08892536	-2.52486801	-3.38393259	-3.30760932	-0.376665682	-0.367078395E-2	-0.773048854E-16	-2.73172069	-2.98325372	-3.55728936	-2.88161540	-0.401838541	-0.117953504E-1	-0.241603125E-14	0.00000000	0.289069526E-1	0.268838946E-1	-0.922904611E-1	-0.145895302	-0.105656639	-0.566831417E-1	0.00000000	0.206972938E-1	0.190844350E-1	-0.800579786E-1	-0.924141482E-1	-0.633229762E-1	-0.335728489E-1
