
Predictions were generated on 13-Sep-2024 at 17:08:44 using FAST.Farm, compiled on Sep 13 2024 at 16:44:43 as a 64-bit application using double precision at commit -128-NOTFOUND and with OpenMP
 linked with  NWTC Subroutine Library

Description from the FAST.Farm input file: Simulation with one turbine using precursor VTK

Time                	W1VAmbx             	RtVRelT1            	YawErrT1            	TIAmbT1             	CtT1N02             	CtT1N03             	CtT1N04             	CtT1N05             	CtT1N06             	WkAxsXT1D1          	WkAxsXT1D2          	WkAxsYT1D1          	WkAxsYT1D2          	WkAxsZT1D1          	WkAxsZT1D2          	WkPosXT1D1          	WkPosXT1D2          	WkPosYT1D1          	WkPosYT1D2          	WkPosZT1D1          	WkPosZT1D2          	WkDfVxT1N01D1       	WkDfVxT1N02D1       	WkDfVxT1N03D1       	WkDfVxT1N04D1       	WkDfVxT1N05D1       	WkDfVxT1N06D1       	WkDfVxT1N07D1       	WkDfVxT1N01D2       	WkDfVxT1N02D2       	WkDfVxT1N03D2       	WkDfVxT1N04D2       	WkDfVxT1N05D2       	WkDfVxT1N06D2       	WkDfVxT1N07D2       	WkDfVrT1N01D1       	WkDfVrT1N02D1       	WkDfVrT1N03D1       	WkDfVrT1N04D1       	WkDfVrT1N05D1       	WkDfVrT1N06D1       	WkDfVrT1N07D1       	WkDfVrT1N01D2       	WkDfVrT1N02D2       	WkDfVrT1N03D2       	WkDfVrT1N04D2       	WkDfVrT1N05D2       	WkDfVrT1N06D2       	WkDfVrT1N07D2       
(s)                 	(m/s)        	(m/s)        	(deg)        	(percent)    	(-)          	(-)          	(-)          	(-)          	(-)          	(-)          	(-)          	(-)          	(-)          	(-)          	(-)          	(m)          	(m)          	(m)          	(m)          	(m)          	(m)          	(m/s)        	(m/s)        	(m/s)        	(m/s)        	(m/s)        	(m/s)        	(m/s)        	(m/s)        	(m/s)        	(m/s)        	(m/s)        	(m/s)        	(m/s)        	(m/s)        	(m/s)        	(m/s)        	(m/s)        	(m/s)        	(m/s)        	(m/s)        	(m/s)        	(m/s)        	(m/s)        	(m/s)        	(m/s)        	(m/s)        	(m/s)        	(m/s)        
    0.0000	8.11987972	8.02585316	0.262263149	9.53005409	0.464708060	0.742972195	0.846820474	-0.246556563E-3	-0.102885929E-5	0.00000000	0.00000000	0.00000000	0.00000000	0.00000000	0.00000000	0.00000000	0.00000000	0.00000000	0.00000000	0.00000000	0.00000000	0.00000000	0.00000000	0.00000000	0.00000000	0.00000000	0.00000000	0.00000000	0.00000000	0.00000000	0.00000000	0.00000000	0.00000000	0.00000000	0.00000000	0.00000000	0.00000000	0.00000000	0.00000000	0.00000000	0.00000000	0.00000000	0.00000000	0.00000000	0.00000000	0.00000000	0.00000000	0.00000000	0.00000000
    3.0000	7.77075338	8.29224873	1.15194011	9.42936897	0.449934095	0.740677118	0.812121391	-0.236817010E-3	-0.988217039E-6	0.00000000	0.00000000	0.00000000	0.00000000	0.00000000	0.00000000	0.00000000	0.00000000	0.00000000	0.00000000	0.00000000	0.00000000	0.00000000	0.00000000	0.00000000	0.00000000	0.00000000	0.00000000	0.00000000	0.00000000	0.00000000	0.00000000	0.00000000	0.00000000	0.00000000	0.00000000	0.00000000	0.00000000	0.00000000	0.00000000	0.00000000	0.00000000	0.00000000	0.00000000	0.00000000	0.00000000	0.00000000	0.00000000	0.00000000	0.00000000
    6.0000	7.48410130	8.11134624	1.89251220	9.35555744	0.460965723	0.750001192	0.834043443	-0.244228751E-3	-0.101914566E-5	0.00000000	0.00000000	0.00000000	0.00000000	0.00000000	0.00000000	0.00000000	0.00000000	0.00000000	0.00000000	0.00000000	0.00000000	0.00000000	0.00000000	0.00000000	0.00000000	0.00000000	0.00000000	0.00000000	0.00000000	0.00000000	0.00000000	0.00000000	0.00000000	0.00000000	0.00000000	0.00000000	0.00000000	0.00000000	0.00000000	0.00000000	0.00000000	0.00000000	0.00000000	0.00000000	0.00000000	0.00000000	0.00000000	0.00000000	0.00000000
    9.0000	7.38111782	7.94283342	2.25019002	9.50180721	0.469082296	0.765084028	0.849960327	-0.242977854E-3	-0.101392573E-5	0.00000000	0.00000000	0.00000000	0.00000000	0.00000000	0.00000000	0.00000000	0.00000000	0.00000000	0.00000000	0.00000000	0.00000000	0.00000000	0.00000000	0.00000000	0.00000000	0.00000000	0.00000000	0.00000000	0.00000000	0.00000000	0.00000000	0.00000000	0.00000000	0.00000000	0.00000000	0.00000000	0.00000000	0.00000000	0.00000000	0.00000000	0.00000000	0.00000000	0.00000000	0.00000000	0.00000000	0.00000000	0.00000000	0.00000000	0.00000000
   12.0000	7.53224373	7.79915810	3.55130339	9.55639172	0.450330436	0.746465921	0.883372009	-0.261780893E-3	-0.109238920E-5	0.00000000	0.00000000	0.00000000	0.00000000	0.00000000	0.00000000	0.00000000	0.00000000	0.00000000	0.00000000	0.00000000	0.00000000	0.00000000	0.00000000	0.00000000	0.00000000	0.00000000	0.00000000	0.00000000	0.00000000	0.00000000	0.00000000	0.00000000	0.00000000	0.00000000	0.00000000	0.00000000	0.00000000	0.00000000	0.00000000	0.00000000	0.00000000	0.00000000	0.00000000	0.00000000	0.00000000	0.00000000	0.00000000	0.00000000	0.00000000
   15.0000	7.24159527	7.55241585	1.71935344	9.41782188	0.446407825	0.734405577	0.916664481	-0.266332499E-3	-0.111138252E-5	0.00000000	0.00000000	0.00000000	0.00000000	0.00000000	0.00000000	0.00000000	0.00000000	0.00000000	0.00000000	0.00000000	0.00000000	0.00000000	0.00000000	0.00000000	0.00000000	0.00000000	0.00000000	0.00000000	0.00000000	0.00000000	0.00000000	0.00000000	0.00000000	0.00000000	0.00000000	0.00000000	0.00000000	0.00000000	0.00000000	0.00000000	0.00000000	0.00000000	0.00000000	0.00000000	0.00000000	0.00000000	0.00000000	0.00000000	0.00000000
   18.0000	7.00108099	7.40388584	2.03237033	9.48674107	0.464893848	0.768825054	0.902447522	-0.254866929E-3	-0.106353787E-5	0.996194720	0.00000000	0.00000000	0.00000000	-0.871557444E-1	0.00000000	1121.36536	0.00000000	1000.93158	0.00000000	88.6744308	0.00000000	-2.12832189	-2.64743757	-3.54958653	-3.43101239	-0.326560527	-0.206905627E-2	-0.663294296E-16	0.00000000	0.00000000	0.00000000	0.00000000	0.00000000	0.00000000	0.00000000	0.00000000	0.336752832E-1	0.246488024E-1	-0.946464539E-1	-0.158323064	-0.115620889	-0.621358715E-1	0.00000000	0.00000000	0.00000000	0.00000000	0.00000000	0.00000000	0.00000000
   21.0000	6.98257017	7.43280125	2.13136101	9.36300564	0.451253742	0.748595536	0.896974921	-0.256255997E-3	-0.106933430E-5	0.996194720	0.00000000	0.00000000	0.00000000	-0.871557444E-1	0.00000000	1121.37939	0.00000000	1000.87842	0.00000000	88.8353271	0.00000000	-2.22605896	-2.69003534	-3.54545212	-3.35149527	-0.343523175	-0.291666505E-2	-0.718514623E-16	0.00000000	0.00000000	0.00000000	0.00000000	0.00000000	0.00000000	0.00000000	0.00000000	0.309249870E-1	0.247666091E-1	-0.925033391E-1	-0.143594161	-0.103453591	-0.555385128E-1	0.00000000	0.00000000	0.00000000	0.00000000	0.00000000	0.00000000	0.00000000
   24.0000	7.01249695	7.32060337	0.575022876	9.25145149	0.451230943	0.741364598	0.942817152	-0.276127801E-3	-0.115225760E-5	0.996194720	0.00000000	0.00000000	0.00000000	-0.871557444E-1	0.00000000	1121.40967	0.00000000	1000.99957	0.00000000	89.1812439	0.00000000	-2.30698919	-2.72598457	-3.54244924	-3.28607655	-0.358545095	-0.373264123E-2	-0.680275122E-16	0.00000000	0.00000000	0.00000000	0.00000000	0.00000000	0.00000000	0.00000000	0.00000000	0.287990384E-1	0.246458314E-1	-0.903833061E-1	-0.132448509	-0.943185464E-1	-0.505755171E-1	0.00000000	0.00000000	0.00000000	0.00000000	0.00000000	0.00000000	0.00000000
   27.0000	7.32722998	7.09887648	1.11812663	8.99973679	0.452636093	0.754097700	0.941180468	-0.262048532E-3	-0.109350594E-5	0.996194720	0.996194720	0.00000000	0.00000000	-0.871557444E-1	-0.871557444E-1	1121.50757	1184.35669	1001.20953	1000.06067	90.2998581	85.8247070	-2.29462171	-2.72053170	-3.54297733	-3.29796553	-0.356869549	-0.358942361E-2	-0.674293680E-16	-2.58136630	-2.87244797	-3.52556300	-3.01793551	-0.395646542	-0.906907674E-2	-0.940875939E-15	0.00000000	0.290887281E-1	0.246957224E-1	-0.905469954E-1	-0.133591637	-0.951871127E-1	-0.510492660E-1	0.00000000	0.230194181E-1	0.219110455E-1	-0.823574215E-1	-0.103113659	-0.712669119E-1	-0.379511639E-1
   30.0000	7.49275112	7.07497692	0.858007669	9.53052902	0.456237465	0.739586830	0.953752518	-0.274431339E-3	-0.114517832E-5	0.996090472	0.996194720	-0.265711551E-4	0.00000000	-0.883387700E-1	-0.871557444E-1	1121.76135	1184.37415	999.814270	1000.03748	92.2669525	86.0243835	-2.31594324	-2.75518060	-3.59800029	-3.19481444	-0.302376270	-0.270365924E-2	0.531698132E-17	-2.62935853	-2.90210080	-3.52115536	-2.97935486	-0.407269031	-0.108428318E-1	-0.278253627E-14	0.00000000	0.299820136E-1	0.248588063E-1	-0.989473462E-1	-0.131211683	-0.944898874E-1	-0.507234074E-1	0.00000000	0.219080858E-1	0.209506173E-1	-0.795827806E-1	-0.976073742E-1	-0.668048635E-1	-0.354812145E-1
   33.0000	7.33954620	7.13971615	-0.960014820	10.1468000	0.451988071	0.744826794	0.934713840	-0.271817873E-3	-0.113427257E-5	0.996020973	0.996194720	-0.124982216E-4	0.00000000	-0.891191140E-1	-0.871557444E-1	1121.96106	1184.42456	998.996338	1000.09064	93.8930740	86.6015244	-2.32101154	-2.75706577	-3.57722116	-3.18897128	-0.310803920	-0.278411806E-2	-0.590668433E-16	-2.67399716	-2.92929554	-3.51734471	-2.94367838	-0.418103516	-0.125068808E-1	-0.584402208E-14	0.00000000	0.295593366E-1	0.233565550E-1	-0.933997333E-1	-0.127861917	-0.915031731E-1	-0.491103828E-1	0.00000000	0.208836328E-1	0.200991556E-1	-0.771771297E-1	-0.927668437E-1	-0.629137680E-1	-0.333224908E-1
   36.0000	6.89801264	7.11475945	-3.18803763	10.3602810	0.468411505	0.758189917	0.903830945	-0.261036359E-3	-0.108928236E-5	0.995992780	0.996194720	-0.252503810E-5	0.00000000	-0.894336253E-1	-0.871557444E-1	1122.03406	1184.52820	998.910095	1000.01996	94.4410172	87.7850342	-2.31302452	-2.75590324	-3.60019159	-3.26658106	-0.340866446	-0.315789972E-2	-0.688499084E-16	-2.70762777	-2.95010400	-3.51478648	-2.91721392	-0.426456958	-0.137999151E-1	-0.357420756E-14	0.00000000	0.303053129E-1	0.252578873E-1	-0.991275012E-1	-0.142040551	-0.102944091	-0.552519634E-1	0.00000000	0.201087650E-1	0.194407664E-1	-0.753568113E-1	-0.892363936E-1	-0.600951053E-1	-0.317542106E-1
   39.0000	6.66092968	7.17948818	-3.57744575	10.8481226	0.480568826	0.755163133	0.865400434	-0.240786554E-3	-0.100478155E-5	0.995976448	0.996188641	-0.784060921E-5	-0.154713166E-5	-0.896153972E-1	-0.872246325E-1	1122.08826	1184.79578	997.765991	998.744202	94.8974762	90.7863922	-2.24286103	-2.67993402	-3.52549839	-3.28886747	-0.360940009	-0.351300417E-2	-0.810289187E-16	-2.69976139	-2.94619489	-3.51868463	-2.92193389	-0.422015160	-0.132182054E-1	-0.264406967E-14	0.00000000	0.297332685E-1	0.258746371E-1	-0.958452746E-1	-0.143112063	-0.103435248	-0.554961115E-1	0.00000000	0.203595292E-1	0.196392369E-1	-0.760487691E-1	-0.899545103E-1	-0.606751293E-1	-0.320859514E-1
   42.0000	6.46116924	7.11582613	-4.66315269	10.9582939	0.465686381	0.764401197	0.889000237	-0.243232382E-3	-0.101498779E-5	0.995959282	0.996078193	0.255659743E-4	-0.288372903E-4	-0.898056701E-1	-0.884774476E-1	1122.23767	1185.07227	995.195251	997.213806	96.4009552	92.8663177	-2.12107205	-2.55392051	-3.40496516	-3.31456208	-0.378125191	-0.371532119E-2	-0.101256707E-15	-2.73466992	-2.98685122	-3.55956197	-2.82603860	-0.367672920	-0.102234054E-1	-0.153457446E-14	0.00000000	0.288833920E-1	0.266952887E-1	-0.926784575E-1	-0.146493807	-0.106097132	-0.569172353E-1	0.00000000	0.207914077E-1	0.186756048E-1	-0.803185329E-1	-0.878929123E-1	-0.599228851E-1	-0.318041258E-1
   45.0000	6.42263651	7.06252146	-4.83455420	11.1794930	0.455093771	0.766604066	0.937424839	-0.282255234E-3	-0.117782679E-5	0.995939374	0.996017754	0.558072279E-4	-0.115784151E-4	-0.900266469E-1	-0.891552344E-1	1122.46155	1185.20190	991.776245	996.743896	98.6903000	93.7419968	-2.06312966	-2.50061607	-3.36983871	-3.34325671	-0.387879670	-0.369934412E-2	-0.965112516E-16	-2.73171306	-2.97836804	-3.53302050	-2.83442426	-0.381919384	-0.109106069E-1	-0.203999796E-14	0.00000000	0.288486946E-1	0.276408102E-1	-0.938827023E-1	-0.150629878	-0.109559186	-0.587822348E-1	0.00000000	0.202358123E-1	0.179749429E-1	-0.770949945E-1	-0.867304578E-1	-0.587621070E-1	-0.311515406E-1
   48.0000	6.29354429	6.87015247	-1.36557698	11.3354645	0.414000750	0.786169291	0.959202766	-0.266517745E-3	-0.111215570E-5	0.995928824	0.995993912	-0.196299916E-4	-0.297624524E-5	-0.901430994E-1	-0.894213468E-1	1122.50415	1185.36426	987.943298	995.158447	99.0811310	95.3067856	-2.08266783	-2.51919103	-3.38058639	-3.30786657	-0.375123084	-0.363855623E-2	-0.769194193E-16	-2.73217678	-2.98431253	-3.56105494	-2.88639092	-0.403687716	-0.118775778E-1	-0.248846104E-14	0.00000000	0.289083403E-1	0.270115286E-1	-0.927283689E-1	-0.146512374	-0.106227487	-0.569928549E-1	0.00000000	0.207728501E-1	0.192343798E-1	-0.805149898E-1	-0.930997729E-1	-0.638851225E-1	-0.338726640E-1
