
Predictions were generated on 31-Oct-2022 at 18:33:23 using FAST.Farm, compiled as a 64-bit application using double precision and with OpenMP
 linked with  NWTC Subroutine Library

Description from the FAST.Farm input file: Simulation with one turbine using precursor VTK

Time                	W1VAmbx             	RtVRelT1            	YawErrT1            	TIAmbT1             	CtT1N02             	CtT1N03             	CtT1N04             	CtT1N05             	CtT1N06             	WkAxsXT1D1          	WkAxsXT1D2          	WkAxsYT1D1          	WkAxsYT1D2          	WkAxsZT1D1          	WkAxsZT1D2          	WkPosXT1D1          	WkPosXT1D2          	WkPosYT1D1          	WkPosYT1D2          	WkPosZT1D1          	WkPosZT1D2          	WkDfVxT1N01D1       	WkDfVxT1N02D1       	WkDfVxT1N03D1       	WkDfVxT1N04D1       	WkDfVxT1N05D1       	WkDfVxT1N06D1       	WkDfVxT1N07D1       	WkDfVxT1N01D2       	WkDfVxT1N02D2       	WkDfVxT1N03D2       	WkDfVxT1N04D2       	WkDfVxT1N05D2       	WkDfVxT1N06D2       	WkDfVxT1N07D2       	WkDfVrT1N01D1       	WkDfVrT1N02D1       	WkDfVrT1N03D1       	WkDfVrT1N04D1       	WkDfVrT1N05D1       	WkDfVrT1N06D1       	WkDfVrT1N07D1       	WkDfVrT1N01D2       	WkDfVrT1N02D2       	WkDfVrT1N03D2       	WkDfVrT1N04D2       	WkDfVrT1N05D2       	WkDfVrT1N06D2       	WkDfVrT1N07D2       
(s)                 	(m/s)        	(m/s)        	(deg)        	(percent)    	(-)          	(-)          	(-)          	(-)          	(-)          	(-)          	(-)          	(-)          	(-)          	(-)          	(-)          	(m)          	(m)          	(m)          	(m)          	(m)          	(m)          	(m/s)        	(m/s)        	(m/s)        	(m/s)        	(m/s)        	(m/s)        	(m/s)        	(m/s)        	(m/s)        	(m/s)        	(m/s)        	(m/s)        	(m/s)        	(m/s)        	(m/s)        	(m/s)        	(m/s)        	(m/s)        	(m/s)        	(m/s)        	(m/s)        	(m/s)        	(m/s)        	(m/s)        	(m/s)        	(m/s)        	(m/s)        	(m/s)        
    0.0000	 8.120E+00	 8.026E+00	 2.623E-01	 9.530E+00	 4.647E-01	 7.430E-01	 8.468E-01	-2.466E-04	-1.029E-06	 0.000E+00	 0.000E+00	 0.000E+00	 0.000E+00	 0.000E+00	 0.000E+00	 0.000E+00	 0.000E+00	 0.000E+00	 0.000E+00	 0.000E+00	 0.000E+00	 0.000E+00	 0.000E+00	 0.000E+00	 0.000E+00	 0.000E+00	 0.000E+00	 0.000E+00	 0.000E+00	 0.000E+00	 0.000E+00	 0.000E+00	 0.000E+00	 0.000E+00	 0.000E+00	 0.000E+00	 0.000E+00	 0.000E+00	 0.000E+00	 0.000E+00	 0.000E+00	 0.000E+00	 0.000E+00	 0.000E+00	 0.000E+00	 0.000E+00	 0.000E+00	 0.000E+00	 0.000E+00
    3.0000	 7.771E+00	 8.289E+00	 1.139E+00	 9.429E+00	 4.496E-01	 7.401E-01	 8.136E-01	-2.374E-04	-9.906E-07	 0.000E+00	 0.000E+00	 0.000E+00	 0.000E+00	 0.000E+00	 0.000E+00	 0.000E+00	 0.000E+00	 0.000E+00	 0.000E+00	 0.000E+00	 0.000E+00	 0.000E+00	 0.000E+00	 0.000E+00	 0.000E+00	 0.000E+00	 0.000E+00	 0.000E+00	 0.000E+00	 0.000E+00	 0.000E+00	 0.000E+00	 0.000E+00	 0.000E+00	 0.000E+00	 0.000E+00	 0.000E+00	 0.000E+00	 0.000E+00	 0.000E+00	 0.000E+00	 0.000E+00	 0.000E+00	 0.000E+00	 0.000E+00	 0.000E+00	 0.000E+00	 0.000E+00	 0.000E+00
    6.0000	 7.484E+00	 8.106E+00	 1.735E+00	 9.356E+00	 4.613E-01	 7.501E-01	 8.344E-01	-2.444E-04	-1.020E-06	 0.000E+00	 0.000E+00	 0.000E+00	 0.000E+00	 0.000E+00	 0.000E+00	 0.000E+00	 0.000E+00	 0.000E+00	 0.000E+00	 0.000E+00	 0.000E+00	 0.000E+00	 0.000E+00	 0.000E+00	 0.000E+00	 0.000E+00	 0.000E+00	 0.000E+00	 0.000E+00	 0.000E+00	 0.000E+00	 0.000E+00	 0.000E+00	 0.000E+00	 0.000E+00	 0.000E+00	 0.000E+00	 0.000E+00	 0.000E+00	 0.000E+00	 0.000E+00	 0.000E+00	 0.000E+00	 0.000E+00	 0.000E+00	 0.000E+00	 0.000E+00	 0.000E+00	 0.000E+00
    9.0000	 7.381E+00	 7.940E+00	 2.185E+00	 9.500E+00	 4.693E-01	 7.650E-01	 8.500E-01	-2.430E-04	-1.014E-06	 0.000E+00	 0.000E+00	 0.000E+00	 0.000E+00	 0.000E+00	 0.000E+00	 0.000E+00	 0.000E+00	 0.000E+00	 0.000E+00	 0.000E+00	 0.000E+00	 0.000E+00	 0.000E+00	 0.000E+00	 0.000E+00	 0.000E+00	 0.000E+00	 0.000E+00	 0.000E+00	 0.000E+00	 0.000E+00	 0.000E+00	 0.000E+00	 0.000E+00	 0.000E+00	 0.000E+00	 0.000E+00	 0.000E+00	 0.000E+00	 0.000E+00	 0.000E+00	 0.000E+00	 0.000E+00	 0.000E+00	 0.000E+00	 0.000E+00	 0.000E+00	 0.000E+00	 0.000E+00
   12.0000	 7.532E+00	 7.797E+00	 3.752E+00	 9.556E+00	 4.504E-01	 7.465E-01	 8.835E-01	-2.618E-04	-1.092E-06	 0.000E+00	 0.000E+00	 0.000E+00	 0.000E+00	 0.000E+00	 0.000E+00	 0.000E+00	 0.000E+00	 0.000E+00	 0.000E+00	 0.000E+00	 0.000E+00	 0.000E+00	 0.000E+00	 0.000E+00	 0.000E+00	 0.000E+00	 0.000E+00	 0.000E+00	 0.000E+00	 0.000E+00	 0.000E+00	 0.000E+00	 0.000E+00	 0.000E+00	 0.000E+00	 0.000E+00	 0.000E+00	 0.000E+00	 0.000E+00	 0.000E+00	 0.000E+00	 0.000E+00	 0.000E+00	 0.000E+00	 0.000E+00	 0.000E+00	 0.000E+00	 0.000E+00	 0.000E+00
   15.0000	 7.242E+00	 7.552E+00	 1.869E+00	 9.382E+00	 4.464E-01	 7.342E-01	 9.169E-01	-2.665E-04	-1.112E-06	 0.000E+00	 0.000E+00	 0.000E+00	 0.000E+00	 0.000E+00	 0.000E+00	 0.000E+00	 0.000E+00	 0.000E+00	 0.000E+00	 0.000E+00	 0.000E+00	 0.000E+00	 0.000E+00	 0.000E+00	 0.000E+00	 0.000E+00	 0.000E+00	 0.000E+00	 0.000E+00	 0.000E+00	 0.000E+00	 0.000E+00	 0.000E+00	 0.000E+00	 0.000E+00	 0.000E+00	 0.000E+00	 0.000E+00	 0.000E+00	 0.000E+00	 0.000E+00	 0.000E+00	 0.000E+00	 0.000E+00	 0.000E+00	 0.000E+00	 0.000E+00	 0.000E+00	 0.000E+00
   18.0000	 7.001E+00	 7.404E+00	 1.938E+00	 9.501E+00	 4.649E-01	 7.688E-01	 9.024E-01	-2.549E-04	-1.064E-06	 9.962E-01	 0.000E+00	 0.000E+00	 0.000E+00	-8.716E-02	 0.000E+00	 1.122E+03	 0.000E+00	 1.003E+03	 0.000E+00	 9.261E+01	 0.000E+00	-2.116E+00	-2.643E+00	-3.550E+00	-3.442E+00	-3.255E-01	-1.996E-03	-6.611E-17	 0.000E+00	 0.000E+00	 0.000E+00	 0.000E+00	 0.000E+00	 0.000E+00	 0.000E+00	 0.000E+00	 3.399E-02	 2.461E-02	-9.467E-02	-1.595E-01	-1.166E-01	-6.265E-02	 0.000E+00	 0.000E+00	 0.000E+00	 0.000E+00	 0.000E+00	 0.000E+00	 0.000E+00
   21.0000	 6.983E+00	 7.431E+00	 2.012E+00	 9.350E+00	 4.513E-01	 7.486E-01	 8.970E-01	-2.563E-04	-1.069E-06	 9.962E-01	 0.000E+00	 0.000E+00	 0.000E+00	-8.716E-02	 0.000E+00	 1.122E+03	 0.000E+00	 1.003E+03	 0.000E+00	 9.445E+01	 0.000E+00	-2.212E+00	-2.684E+00	-3.546E+00	-3.364E+00	-3.421E-01	-2.826E-03	-7.139E-17	 0.000E+00	 0.000E+00	 0.000E+00	 0.000E+00	 0.000E+00	 0.000E+00	 0.000E+00	 0.000E+00	 3.127E-02	 2.474E-02	-9.257E-02	-1.450E-01	-1.045E-01	-5.612E-02	 0.000E+00	 0.000E+00	 0.000E+00	 0.000E+00	 0.000E+00	 0.000E+00	 0.000E+00
   24.0000	 7.012E+00	 7.320E+00	 5.704E-01	 9.251E+00	 4.513E-01	 7.415E-01	 9.428E-01	-2.761E-04	-1.152E-06	 9.962E-01	 0.000E+00	 0.000E+00	 0.000E+00	-8.716E-02	 0.000E+00	 1.122E+03	 0.000E+00	 1.004E+03	 0.000E+00	 9.639E+01	 0.000E+00	-2.292E+00	-2.720E+00	-3.543E+00	-3.300E+00	-3.570E-01	-3.609E-03	-7.521E-17	 0.000E+00	 0.000E+00	 0.000E+00	 0.000E+00	 0.000E+00	 0.000E+00	 0.000E+00	 0.000E+00	 2.913E-02	 2.469E-02	-9.051E-02	-1.336E-01	-9.520E-02	-5.105E-02	 0.000E+00	 0.000E+00	 0.000E+00	 0.000E+00	 0.000E+00	 0.000E+00	 0.000E+00
   27.0000	 7.327E+00	 7.100E+00	 1.156E+00	 9.000E+00	 4.525E-01	 7.538E-01	 9.414E-01	-2.622E-04	-1.094E-06	 9.962E-01	 9.962E-01	 0.000E+00	 0.000E+00	-8.716E-02	-8.716E-02	 1.122E+03	 1.185E+03	 1.004E+03	 1.004E+03	 9.693E+01	 9.331E+01	-2.297E+00	-2.723E+00	-3.543E+00	-3.297E+00	-3.588E-01	-3.740E-03	-7.035E-17	-2.575E+00	-2.869E+00	-3.526E+00	-3.024E+00	-3.952E-01	-8.912E-03	-8.194E-16	 0.000E+00	 2.903E-02	 2.462E-02	-9.001E-02	-1.324E-01	-9.417E-02	-5.049E-02	 0.000E+00	 2.315E-02	 2.202E-02	-8.258E-02	-1.038E-01	-7.176E-02	-3.822E-02
   30.0000	 7.493E+00	 7.075E+00	 8.830E-01	 9.531E+00	 4.562E-01	 7.395E-01	 9.537E-01	-2.744E-04	-1.145E-06	 9.961E-01	 9.962E-01	-1.827E-05	 0.000E+00	-8.793E-02	-8.716E-02	 1.122E+03	 1.185E+03	 1.003E+03	 1.004E+03	 9.740E+01	 9.521E+01	-2.304E+00	-2.741E+00	-3.578E+00	-3.235E+00	-3.234E-01	-3.161E-03	-2.338E-17	-2.619E+00	-2.896E+00	-3.522E+00	-2.989E+00	-4.061E-01	-1.060E-02	-2.481E-15	 0.000E+00	 2.968E-02	 2.483E-02	-9.561E-02	-1.312E-01	-9.392E-02	-5.039E-02	 0.000E+00	 2.211E-02	 2.109E-02	-7.985E-02	-9.843E-02	-6.743E-02	-3.582E-02
   33.0000	 7.340E+00	 7.140E+00	-9.314E-01	 1.015E+01	 4.519E-01	 7.447E-01	 9.349E-01	-2.720E-04	-1.135E-06	 9.960E-01	 9.962E-01	-1.955E-05	 0.000E+00	-8.887E-02	-8.716E-02	 1.122E+03	 1.185E+03	 1.001E+03	 1.005E+03	 9.824E+01	 9.735E+01	-2.317E+00	-2.756E+00	-3.585E+00	-3.192E+00	-3.079E-01	-2.753E-03	-2.454E-17	-2.661E+00	-2.921E+00	-3.518E+00	-2.957E+00	-4.162E-01	-1.215E-02	-5.815E-15	 0.000E+00	 2.969E-02	 2.380E-02	-9.476E-02	-1.281E-01	-9.169E-02	-4.921E-02	 0.000E+00	 2.115E-02	 2.029E-02	-7.758E-02	-9.383E-02	-6.372E-02	-3.377E-02
   36.0000	 6.898E+00	 7.117E+00	-3.196E+00	 1.036E+01	 4.681E-01	 7.577E-01	 9.042E-01	-2.612E-04	-1.090E-06	 9.960E-01	 9.962E-01	-3.949E-06	 0.000E+00	-8.936E-02	-8.716E-02	 1.122E+03	 1.186E+03	 1.001E+03	 1.005E+03	 9.926E+01	 9.976E+01	-2.315E+00	-2.755E+00	-3.588E+00	-3.241E+00	-3.326E-01	-3.062E-03	-6.888E-17	-2.700E+00	-2.945E+00	-3.515E+00	-2.926E+00	-4.258E-01	-1.357E-02	-6.826E-15	 0.000E+00	 2.994E-02	 2.441E-02	-9.597E-02	-1.359E-01	-9.784E-02	-5.251E-02	 0.000E+00	 2.026E-02	 1.958E-02	-7.553E-02	-8.970E-02	-6.041E-02	-3.193E-02
   39.0000	 6.661E+00	 7.179E+00	-3.629E+00	 1.085E+01	 4.807E-01	 7.552E-01	 8.654E-01	-2.408E-04	-1.005E-06	 9.960E-01	 9.962E-01	-1.735E-06	 0.000E+00	-8.958E-02	-8.716E-02	 1.123E+03	 1.186E+03	 1.000E+03	 1.004E+03	 1.001E+02	 1.011E+02	-2.275E+00	-2.716E+00	-3.567E+00	-3.296E+00	-3.594E-01	-3.448E-03	-7.185E-17	-2.703E+00	-2.948E+00	-3.515E+00	-2.925E+00	-4.277E-01	-1.380E-02	-3.777E-15	 0.000E+00	 3.005E-02	 2.604E-02	-9.834E-02	-1.444E-01	-1.046E-01	-5.610E-02	 0.000E+00	 2.016E-02	 1.948E-02	-7.519E-02	-8.923E-02	-6.001E-02	-3.171E-02
   42.0000	 6.461E+00	 7.117E+00	-4.696E+00	 1.096E+01	 4.656E-01	 7.642E-01	 8.891E-01	-2.433E-04	-1.015E-06	 9.960E-01	 9.961E-01	 8.813E-06	-1.500E-05	-8.977E-02	-8.779E-02	 1.123E+03	 1.186E+03	 9.990E+02	 1.002E+03	 1.005E+02	 1.017E+02	-2.140E+00	-2.572E+00	-3.417E+00	-3.303E+00	-3.759E-01	-3.715E-03	-8.465E-17	-2.713E+00	-2.963E+00	-3.537E+00	-2.882E+00	-3.994E-01	-1.217E-02	-2.588E-15	 0.000E+00	 2.892E-02	 2.630E-02	-9.155E-02	-1.435E-01	-1.035E-01	-5.551E-02	 0.000E+00	 2.055E-02	 1.922E-02	-7.779E-02	-8.871E-02	-6.005E-02	-3.179E-02
   45.0000	 6.423E+00	 7.065E+00	-4.835E+00	 1.118E+01	 4.548E-01	 7.661E-01	 9.377E-01	-2.824E-04	-1.179E-06	 9.959E-01	 9.960E-01	 6.941E-05	-2.168E-05	-9.001E-02	-8.880E-02	 1.123E+03	 1.186E+03	 9.974E+02	 1.001E+03	 1.014E+02	 1.026E+02	-2.050E+00	-2.489E+00	-3.362E+00	-3.355E+00	-3.911E-01	-3.672E-03	-4.875E-17	-2.731E+00	-2.981E+00	-3.545E+00	-2.836E+00	-3.772E-01	-1.070E-02	-1.764E-15	 0.000E+00	 2.872E-02	 2.791E-02	-9.432E-02	-1.518E-01	-1.106E-01	-5.932E-02	 0.000E+00	 2.050E-02	 1.830E-02	-7.827E-02	-8.707E-02	-5.907E-02	-3.132E-02
   48.0000	 6.294E+00	 6.869E+00	-1.348E+00	 1.134E+01	 4.141E-01	 7.863E-01	 9.592E-01	-2.665E-04	-1.112E-06	 9.959E-01	 9.960E-01	-2.394E-05	-5.290E-06	-9.016E-02	-8.933E-02	 1.123E+03	 1.186E+03	 9.944E+02	 9.998E+02	 1.009E+02	 1.042E+02	-2.101E+00	-2.535E+00	-3.390E+00	-3.306E+00	-3.790E-01	-3.729E-03	-7.717E-17	-2.730E+00	-2.979E+00	-3.543E+00	-2.865E+00	-3.959E-01	-1.153E-02	-1.959E-15	 0.000E+00	 2.887E-02	 2.668E-02	-9.155E-02	-1.444E-01	-1.043E-01	-5.594E-02	 0.000E+00	 2.043E-02	 1.856E-02	-7.829E-02	-8.978E-02	-6.115E-02	-3.241E-02
