# vtk DataFile Version 3.0
Low resolution, disturbed wind of YZ Slice at time = 51 seconds.
ASCII
DATASET STRUCTURED_POINTS
DIMENSIONS     1    26    12
ORIGIN    1630.00     635.00      15.00
SPACING      30.00      30.00      30.00
POINT_DATA             312
VECTORS DisYZ float
      7.38       0.25       0.40
      7.19       1.65       0.18
      5.02       0.67       0.57
      6.89       1.05       0.22
      5.10       1.25       0.15
      5.42       0.09       0.08
      4.60       0.02       0.35
      6.40       0.55      -0.83
      5.28       0.25      -0.66
      4.79       1.50      -0.08
      3.63       0.66       0.36
      3.40       0.09       0.53
      4.01       0.35      -0.16
      5.35       0.42      -0.01
      4.65      -0.50      -0.15
      4.77       0.15      -0.33
      2.80       0.36       0.42
      5.48       0.12      -0.03
      5.52       0.66      -0.35
      5.30       0.03       0.15
      4.63      -0.19       0.33
      5.19      -0.80       0.06
      5.64      -0.03       0.07
      5.96      -0.21      -0.01
      5.58       0.03       0.40
      7.18      -0.50       0.03
      7.57       0.40       0.07
      6.97       0.08      -0.03
      6.70       0.76       0.75
      7.19       1.23       0.54
      5.59       0.87       0.06
      6.69       0.64      -0.14
      6.41       0.37       0.70
      6.69      -0.23       0.02
      7.32       0.30      -0.07
      4.98       0.45       0.71
      5.42       0.13       0.56
      6.09       0.52       0.08
      7.14       0.39      -0.61
      6.06       0.48       0.16
      6.75      -0.10      -0.51
      6.56      -0.14      -0.53
      6.02       0.42      -0.41
      6.37       0.69       0.59
      6.76       0.99       0.66
      6.58       0.19       0.52
      6.41      -0.59      -0.04
      7.79      -0.59       0.02
      7.87       0.07      -0.22
      7.80      -0.21      -0.26
      6.90       0.17       0.05
      7.41       0.05      -0.26
      8.48       0.37      -0.39
      8.17       0.60       0.49
      8.27       1.40       0.37
      7.23       0.60       0.80
      7.33       0.95       0.18
      6.96       0.28       0.35
      7.73      -0.18       0.46
      7.54       0.12       0.03
      7.76      -0.27      -0.16
      7.41      -0.13      -0.05
      7.46       0.07       0.95
      8.23       0.67      -0.15
      6.58       0.04       0.15
      6.65      -0.03       0.31
      7.86      -0.31      -0.24
      7.70      -0.24      -0.49
      6.84       0.89       0.07
      7.75      -0.14       0.53
      7.64      -0.20      -0.24
      6.78       0.18       0.66
      7.93      -0.89       0.53
      8.09      -1.24      -0.13
      7.84      -0.58       0.60
      8.17      -1.46       0.20
      8.68      -0.68      -0.20
      8.98      -0.90       0.08
      8.63       0.73      -0.21
      8.20      -0.00      -0.19
      8.11       0.39       0.18
      9.15       0.52       1.24
      7.68       0.41      -0.06
      7.22       0.60       0.37
      7.61       0.79      -0.30
      7.96       0.12       0.45
      7.56      -0.59      -0.07
      8.01      -0.95      -0.85
      7.61      -0.18       0.55
      7.61       0.31       0.02
      7.70       0.03       0.42
      7.39       0.89      -0.23
      8.14       0.80      -0.18
      8.16       0.13      -0.34
      6.50      -0.02       0.94
      7.25       0.21      -0.25
      7.96      -0.34       0.30
      8.29      -0.26      -0.05
      8.48      -0.44       0.17
      9.19      -0.53       0.04
      8.72      -0.31       0.27
      7.57      -0.14       0.65
      8.88      -0.50      -0.50
      8.14      -0.12       0.30
      8.62       0.35       0.93
      8.84       0.47      -0.07
      8.64      -0.40      -0.27
      8.26      -0.25       0.06
      8.73      -0.05      -0.24
      7.79       0.16       0.41
      7.60      -0.37       0.18
      7.77      -0.62      -0.04
      7.84      -0.48       0.34
      7.92      -0.12      -0.92
      7.85      -0.51      -0.35
      8.19       0.10       0.07
      8.25       0.03       0.56
      8.41       0.23       0.20
      8.59       0.06      -0.13
      8.37      -0.03       0.08
      8.02      -0.01      -0.04
      8.09      -0.14       0.86
      7.64       0.13      -0.07
      8.25      -0.29      -0.14
      8.28       0.06      -0.02
      8.73      -0.08      -0.05
      9.95       0.15       0.11
      9.45      -0.13       0.23
      9.03      -0.03      -0.04
      8.78       0.25       0.09
      8.28       0.20       1.03
      8.46       0.00       0.50
      8.54      -0.30       0.29
      8.76      -0.39      -0.05
      8.77      -0.08      -0.28
      8.74       0.46       0.33
      8.82       0.57      -0.24
      8.08       0.21       0.31
      8.73       0.03      -0.53
      8.55       0.02      -0.41
      8.57      -0.36       0.08
      9.34      -0.06      -0.17
      9.10      -0.10       0.01
      8.69       0.12       0.44
      8.70       0.42       0.48
      8.68       0.09      -0.18
      8.21      -0.12      -0.19
      7.60      -0.17       1.22
      7.69      -0.34       0.30
      8.30      -0.29      -0.21
      9.37       0.14      -0.33
      9.08       0.29      -0.22
      9.25       0.08       0.08
      8.96       0.51       0.38
      8.94       0.36      -0.19
      8.96      -0.06       0.00
      8.44      -0.12       0.52
      8.70      -0.07       0.31
      8.83       0.35      -0.36
      9.09      -0.10       0.10
      9.44       0.05      -0.29
      8.71      -0.38      -0.20
      8.89      -0.43      -0.27
      8.51      -0.15       0.11
      9.28      -0.25      -0.13
      9.09      -0.36      -0.21
      9.33      -0.55      -0.02
      9.85      -0.33      -0.28
      9.10      -0.32       0.17
      8.80      -0.64       0.26
      8.55      -0.54       0.04
      8.26       0.06      -0.06
      8.75       0.21       0.53
      7.95      -0.70       0.58
      7.65      -0.70       0.46
      9.05      -0.51      -0.50
      8.74      -0.20      -0.48
      8.56      -0.02       0.66
      9.15       0.14       0.16
      8.98       0.36       0.18
      9.11      -0.03      -0.03
      9.01      -0.36       0.13
      8.76      -0.04       0.33
      9.13      -0.29      -0.01
      8.79       0.08      -0.20
      9.12      -0.25      -0.23
      8.87      -0.34      -0.18
      9.43      -0.41      -0.20
      9.17      -0.46       0.04
      9.55      -0.41      -0.12
      9.97      -0.21      -0.54
      9.53      -0.43      -0.13
      9.60      -0.52      -0.16
      8.92      -0.76       0.18
      8.88      -0.84       0.44
      8.86      -0.74       0.27
      8.76      -0.43      -0.13
      8.84      -0.06       0.36
      9.15      -0.14       0.58
      8.27      -0.51       0.67
      8.03      -0.44       0.41
      9.03      -0.37      -0.22
      9.34      -0.35       0.46
      9.66      -0.51       0.04
      8.91       0.22       0.51
      8.99      -0.36       0.36
      9.38      -0.17      -0.03
      9.78      -0.16      -0.25
      8.76      -0.04       0.19
      8.70       0.15       0.22
      9.25      -0.36       0.01
      8.96      -0.34       0.32
      9.24      -0.87       0.32
      9.43      -0.32       0.13
      9.41      -0.24      -0.21
      9.72      -0.39      -0.25
      9.54      -0.63      -0.69
      9.66      -0.47       0.11
      9.29      -0.62       0.34
      8.92      -0.91       0.46
      8.85      -1.22       0.57
      8.86      -1.06       0.62
      9.42      -0.81       0.27
      8.96      -0.46       0.68
      8.84      -0.25       0.72
      8.57      -0.09       1.35
      8.40      -0.40       0.51
      9.55      -0.61      -0.47
      9.79      -0.68      -0.41
      9.02      -0.42      -0.03
      8.78      -0.10       0.63
      9.29       0.22      -0.14
      9.48       0.00      -0.08
     10.26      -0.45      -0.40
      8.96      -0.58      -0.06
      9.42      -0.31       0.42
      9.33      -0.51       0.33
      9.17      -0.63       0.43
      9.12      -0.75       0.08
      9.45      -0.77      -0.06
      9.59      -0.48      -0.10
      9.82      -0.66       0.02
      9.81      -0.67      -0.27
      9.10      -1.37       0.22
      9.36      -1.04       0.59
      9.86      -1.33       0.52
      9.83      -1.14       0.24
     10.30      -0.48       0.41
      9.57      -0.87       0.31
      9.23      -0.72       0.32
      9.20      -0.49       0.60
      8.79      -0.63       0.74
      9.18      -0.25      -0.20
     10.32      -0.18      -0.77
     10.22      -0.49      -0.48
      8.92      -0.41      -0.13
      9.04      -0.27       0.23
      9.57      -0.29      -0.22
     10.10      -0.63      -0.36
     10.43      -0.41      -0.45
      8.84      -0.16       0.26
      9.81      -0.81       0.17
      9.25      -0.48      -0.71
      9.06      -0.38       0.24
      9.15      -0.57       0.14
      9.32      -0.62      -0.02
      9.96      -0.75      -0.27
      9.73      -0.99       0.01
      9.53      -1.25       0.28
      9.42      -1.30       0.13
      9.91      -0.83       0.38
      9.99      -1.16      -0.07
      9.67      -1.09       0.05
      9.80      -1.08      -0.18
      9.64      -0.69       0.24
      9.50      -0.68       0.25
      9.73      -0.38       0.13
      9.58       0.02       0.46
      9.77      -0.62      -0.10
      9.10      -0.18       0.11
      9.56      -0.38      -0.25
      8.79      -0.14       0.28
      9.58      -0.23       0.11
      9.97      -0.47       0.31
     10.31      -0.77      -0.27
     10.31      -0.92      -0.32
      9.33      -0.38       0.66
      9.12      -0.63      -0.04
      9.29      -0.68      -0.08
      9.37      -0.64       0.19
      8.97      -0.56       0.59
      9.25      -0.51       0.08
      9.49      -0.58       0.10
      9.99      -1.33       0.20
      9.95      -1.08      -0.04
      9.76      -0.94       0.05
      9.63      -0.84       0.40
      9.41      -0.91       0.14
      9.92      -0.83      -0.33
      9.84      -0.90      -0.05
      9.59      -0.78       0.25
     10.20      -0.74      -0.06
      9.88      -0.82       0.03
      9.76      -0.87       0.01
      9.95      -0.62       0.40
      9.24      -0.77       0.28
      9.62      -0.64       0.16
      9.74      -0.73       0.10
     10.04      -0.75       0.30
      9.63      -0.74       0.28
     10.26      -0.93      -0.16
     10.71      -0.94      -0.27
