# vtk DataFile Version 3.0
Low resolution, disturbed wind of YZ Slice at time = 42 seconds.
ASCII
DATASET STRUCTURED_POINTS
DIMENSIONS     1    26    12
ORIGIN    2008.00     635.00      15.00
SPACING      30.00      30.00      30.00
POINT_DATA             312
VECTORS DisYZ float
      6.81       0.91      -0.15
      6.71       1.76       0.16
      4.61       1.70       0.13
      6.52       0.82      -0.68
      4.57       0.46      -0.05
      4.90       0.84      -0.28
      5.59       0.64       0.06
      5.64      -0.51       0.28
      5.36      -0.23      -1.13
      3.99       0.37       0.42
      5.67      -0.21       0.10
      5.50      -0.80       0.24
      4.57       0.27       0.02
      6.05       0.13      -0.18
      6.10       0.30      -0.37
      4.83       0.17      -0.29
      4.35       0.26      -0.04
      4.49       0.91      -0.46
      5.35       0.33       0.02
      6.35       0.51      -0.02
      6.03       0.44       0.14
      7.51       0.01      -0.12
      5.67      -0.04      -0.04
      6.12       0.41      -0.35
      7.76      -0.72      -0.44
      8.31       0.51       0.07
      6.56      -0.26      -0.20
      6.42      -0.06      -0.26
      6.74       0.16      -0.51
      6.61       0.53      -0.88
      6.02       0.53      -0.15
      6.99       0.32      -0.26
      6.05       0.45       0.39
      6.49       0.89      -0.10
      6.93       0.81      -0.23
      6.21       0.28      -0.41
      5.69       0.99       0.48
      5.52      -0.21       0.54
      6.28       0.15      -0.15
      6.78      -0.01       0.03
      7.53       0.70       0.14
      5.81      -0.31       0.18
      6.89      -0.18      -0.16
      5.66       0.87       0.08
      5.68       0.67       0.35
      6.84       0.82      -0.22
      6.57       0.57       0.04
      7.74       0.66       0.01
      6.97       0.48       0.19
      7.46       0.34      -0.48
      8.17       0.61       0.12
      7.08      -0.43       0.25
      5.90      -0.05       0.19
      7.75       0.34      -0.37
      7.21       0.25      -0.51
      7.37      -0.33      -0.93
      6.88      -0.72       0.03
      7.33       0.04      -0.34
      7.24       0.28       0.15
      7.12       0.51       0.09
      7.68       0.20      -0.09
      6.81       0.29      -0.22
      7.19       0.36      -0.18
      6.90      -0.19       0.01
      6.91       0.48      -0.18
      7.32      -0.01      -0.50
      6.67      -0.17      -0.00
      6.48       0.44       1.02
      6.42       0.78      -0.33
      7.50       0.67       0.41
      7.41       0.15      -0.12
      6.90      -0.01       0.26
      8.57      -0.24       0.15
      7.79       0.15      -0.38
      7.71       0.26       0.09
      8.35       0.43      -0.09
      8.42       0.14       0.16
      8.44       0.59      -0.24
      7.68      -0.31       0.34
      7.74       0.22      -0.35
      8.13       0.16      -0.48
      8.01       0.12      -0.24
      7.44      -0.17       0.03
      7.57      -0.16      -0.28
      7.27      -0.53       0.24
      8.31      -0.77       0.12
      8.20      -0.42      -0.15
      8.31      -0.00      -0.29
      8.25       0.21      -0.36
      7.93       0.04       0.04
      8.07      -0.26      -0.55
      8.05      -0.51      -0.47
      8.29      -0.43      -0.29
      8.11       0.59       0.20
      8.40       0.59       0.16
      8.01       0.64       0.37
      7.53       0.09       0.48
      7.85      -0.41       0.31
      8.27      -0.40      -0.29
      9.01       0.28      -0.22
      8.51       0.04       0.02
      8.84      -0.05       0.13
      9.19      -0.02       0.02
      9.42      -0.04      -0.24
      7.73      -0.03       0.14
      7.69       0.15      -0.01
      7.96      -0.11      -0.40
      8.36      -0.62      -0.34
      8.13       0.06      -0.09
      7.82      -0.29      -0.04
      8.55      -0.46       0.19
      8.19      -0.37      -0.04
      8.08      -0.42      -0.41
      9.04      -0.24      -0.44
      9.25      -0.32      -0.37
      7.94       0.16       0.56
      8.29      -0.54      -0.14
      9.02      -0.74       0.10
      9.09      -0.68      -0.43
      9.06      -0.25      -0.15
      8.88      -0.16      -0.31
      7.98       0.01       0.79
      8.02       0.43       0.53
      8.32       0.51      -0.09
      8.15       0.62      -0.12
      8.89       0.61      -0.16
      9.07       0.13       0.07
      9.04      -0.07       0.32
      8.82       0.15       0.26
      8.79       0.14       0.20
      8.31       0.04       0.35
      7.90       0.02       0.31
      8.23      -0.21      -0.23
      8.35      -0.28       0.19
      7.74      -0.47       0.02
      8.14      -0.61       0.52
      8.57      -0.28       0.35
      8.15      -0.03       0.56
      7.81      -0.20      -0.11
      9.15      -0.56      -0.42
      8.67      -0.46      -0.55
      8.49      -0.94       1.10
      8.57      -0.79      -0.16
      8.84      -0.83       0.16
      9.24      -0.63      -0.37
      9.54      -0.58      -0.20
      9.96      -0.61      -0.53
      9.00      -0.93      -0.34
      8.81      -0.02       0.22
      9.45       0.21       0.11
      8.58      -0.07       0.20
      9.52       0.27      -0.26
      9.20      -0.04      -0.22
      9.27      -0.13      -0.26
      9.07       0.04       0.12
      9.08      -0.12       0.51
      8.41       0.13       0.28
      8.10       0.24       0.27
      8.61       0.10       0.27
      8.51       0.26       0.14
      8.16      -0.01       0.56
      8.27      -0.39       0.37
      8.76      -0.74       0.33
      8.45      -0.89       0.34
      8.42      -0.44       0.45
      9.01      -0.63      -0.40
      9.10      -0.87      -0.40
      8.27      -0.97       0.39
      9.13      -0.89       0.11
      9.52      -0.65      -0.41
     10.00      -0.23      -0.28
      9.81      -0.25      -0.34
      9.78      -0.79      -0.45
      8.82      -1.11      -0.13
      8.70      -0.47       0.60
      8.76      -0.22       0.23
      9.16      -0.12       0.09
      9.29      -0.24       0.27
      9.31      -0.48      -0.30
      9.51      -0.40      -0.24
      9.14      -0.52       0.22
      8.90      -0.15       0.56
      8.02       0.09       0.30
      8.39       0.12       0.13
      8.73      -0.08       0.42
      8.71      -0.32       0.48
      8.81      -0.47       0.30
      8.96      -0.46       0.22
      8.78      -0.49       0.35
      8.51      -0.78       0.35
      8.71      -0.46       0.61
      9.61      -0.23      -0.32
      8.85      -0.88       0.12
      9.55      -0.99       0.14
      9.62      -0.86      -0.18
      9.45      -1.01      -0.59
      9.59      -0.58      -0.28
     10.12      -0.27      -0.13
      9.83      -0.98      -0.07
      8.87      -0.97       0.25
      8.52      -0.65       0.57
      8.82      -0.50       0.18
      8.99      -0.70       0.35
      9.39      -0.32       0.13
      9.94      -0.28      -0.40
      9.57      -0.08      -0.32
      9.86      -0.57       0.33
      9.05      -0.38       0.69
      8.88      -0.05      -0.02
      8.60       0.13       0.13
      8.87       0.11       0.09
      9.59       0.26       0.23
      9.04       0.36       0.30
      9.21      -0.05       0.27
      9.01       0.07       0.05
      9.21       0.26       0.36
      9.12       0.20       0.42
      9.66      -0.23       0.13
      9.03      -0.85      -0.03
      9.23      -0.54       0.25
     10.10      -0.80      -0.50
      9.79      -0.95      -0.30
      9.66      -0.73      -0.54
      9.83      -0.64      -0.10
      9.45      -0.96       0.44
      9.02      -0.94       0.08
      9.35      -0.61      -0.57
      9.64      -0.66       0.03
      9.50      -0.25       0.05
      9.53      -0.61      -0.07
      9.11      -0.92      -0.03
      9.54      -1.05       0.09
     10.14      -0.82      -0.06
      9.98      -0.28       0.14
      8.54      -0.18       0.54
      8.87      -0.15      -0.10
      9.38      -0.53       0.18
      9.39      -0.73       0.04
      9.79      -0.11      -0.06
      9.31      -0.18      -0.12
      9.12      -0.44       0.19
      9.41      -0.20       0.12
      9.63       0.03       0.48
      9.76      -0.12       0.69
      9.34      -0.55       0.32
      9.59      -0.86      -0.00
     10.15      -0.53      -0.13
     10.13      -0.51      -0.31
      9.94      -0.42      -0.05
      9.17      -0.98       0.01
      9.31      -1.00       0.07
      9.32      -0.86       0.22
      9.35      -0.49      -0.28
      9.37      -0.92      -0.18
      9.79      -1.08       0.17
      9.44      -1.12       0.42
      9.45      -1.43       0.22
     10.11      -1.19      -0.28
      9.83      -0.86       0.04
     10.23      -0.81      -0.16
      9.21      -0.75       0.45
      9.31      -0.68       0.24
      9.18      -0.75       0.27
      9.88      -0.49       0.19
      9.41      -0.67      -0.07
      9.35      -0.42      -0.17
      9.16      -0.48       0.43
      9.25      -0.50       0.56
      9.72      -0.80       0.37
      9.53      -0.51       0.22
      9.77      -0.80       0.16
      9.84      -0.52       0.05
      9.91      -0.36       0.07
     10.19      -0.43      -0.12
      9.62      -0.68       0.27
      8.87      -0.96       0.40
      9.26      -0.76      -0.10
      9.06      -0.75       0.00
      9.66      -0.75       0.01
      9.85      -0.73       0.07
      9.48      -0.57       0.12
      9.92      -0.59       0.21
      9.85      -0.47       0.01
     10.05      -0.17      -0.23
     10.91      -0.46      -0.46
     10.22      -0.46      -0.15
      9.26      -0.88       0.33
      9.23      -0.91       0.26
      9.34      -0.57       0.27
      9.78      -0.68       0.27
      9.50      -0.39       0.14
      9.48      -0.78       0.16
      8.93      -0.98       0.69
      9.48      -0.78       0.85
      9.37      -0.94       0.43
      9.79      -0.84       0.29
     10.11      -0.87       0.08
     10.48      -0.66      -0.28
     10.08      -0.61      -0.13
     10.06      -0.79       0.02
      9.58      -1.23       0.26
      9.75      -0.72       0.31
      9.84      -0.43       0.40
      9.90      -0.59       0.13
      9.89      -0.75       0.04
      9.90      -1.10       0.20
      9.59      -0.60       0.27
      9.87      -0.48       0.14
     10.12      -0.31       0.03
     10.63      -0.54      -0.06
     10.78      -0.75      -0.14
     11.28      -0.62      -0.42
