# vtk DataFile Version 3.0
Low resolution, disturbed wind of YZ Slice at time = 27 seconds.
ASCII
DATASET STRUCTURED_POINTS
DIMENSIONS     1    26    12
ORIGIN     748.00     635.00      15.00
SPACING      30.00      30.00      30.00
POINT_DATA             312
VECTORS DisYZ float
      4.80      -0.74       0.31
      7.75      -0.30      -0.34
      7.14      -0.21      -0.50
      5.09       0.91       0.60
      3.69       0.08       0.15
      4.00      -0.39       0.82
      7.07       0.08      -0.30
      5.97       0.79       0.32
      6.40      -0.15       0.17
      4.47       0.36      -0.26
      3.63       0.51      -0.32
      4.40      -0.36      -0.06
      4.63      -0.37      -0.05
      3.51       0.20       0.42
      3.89       0.27       0.36
      3.34      -0.06      -0.10
      4.94      -0.03      -0.15
      4.99       0.12       0.07
      3.30       0.47       0.15
      5.30       0.29      -0.45
      5.30       0.47       0.19
      5.02      -0.32       0.37
      5.38      -0.47       0.15
      6.12      -0.08      -0.02
      8.09      -0.28      -0.12
      5.33       0.56       0.56
      7.12       0.63       0.04
      8.91       0.89      -0.65
      7.85       0.95       0.40
      6.08       0.02       0.25
      4.40       0.03       1.00
      6.08       0.58       0.50
      7.13       1.16      -0.21
      7.42      -0.12      -0.12
      7.13       0.92      -0.11
      8.03       0.94      -0.41
      7.66      -0.12      -0.57
      6.90       0.63      -0.01
      6.18       0.46       0.17
      5.71       0.42      -0.17
      6.16      -0.04       0.05
      6.11       0.69       0.43
      5.61      -0.03       0.75
      6.84      -0.02      -0.67
      6.59      -0.78      -0.28
      7.12      -0.03      -0.51
      7.47       0.26       0.26
      5.61       0.13       1.32
      8.01      -0.04      -0.30
      7.25       0.22       0.02
      7.77       0.74       0.16
      7.83       0.53       0.51
      8.99       0.60       0.39
      8.03       0.82       0.23
      7.87       1.01       0.51
      6.89       0.41       0.97
      5.79       0.33       0.63
      7.17       1.13       0.10
      7.17       0.62      -0.09
      8.01       0.48      -0.12
      8.35       0.22      -0.68
      8.61       0.15      -0.09
      8.17       0.38      -0.51
      7.53       0.09      -0.30
      6.49       0.21       0.26
      6.88       0.34       0.23
      6.52      -0.06       0.17
      6.90      -0.74      -0.30
      7.95      -0.42       0.55
      7.56       0.08       0.03
      8.42      -0.67       0.16
      8.08      -0.19      -0.07
      8.42      -1.34       0.56
      7.37      -0.68       1.00
      8.68       0.06       0.01
      9.24       1.16      -0.22
      8.43       0.81       0.24
      8.19       1.10       0.52
      9.08       0.19      -0.11
      8.20       0.54       0.04
      7.22       0.38       0.95
      7.42      -0.60       0.27
      8.16      -0.10       0.25
      8.35      -0.05      -0.31
      7.91       0.18       0.12
      7.73      -0.44      -0.08
      8.26       0.34      -0.21
      8.43       0.27       0.03
      8.33       0.28      -0.32
      7.57       0.00      -0.24
      7.40       0.23       0.06
      7.23       0.36       0.57
      6.77       0.18       0.22
      7.91      -0.98       0.56
      7.59      -0.62       0.36
      8.25       0.16      -0.06
      8.60       0.33       0.09
      8.86      -0.23       0.58
      8.43      -0.61       0.36
      9.25       0.15       0.26
     10.03       0.21      -0.23
      9.69       0.08      -0.19
      9.87       0.47      -0.31
      9.02       0.67       0.04
      8.39      -0.15      -0.12
      8.33       0.01      -0.08
      7.94      -0.49       0.41
      8.09       0.10       0.64
      7.78       0.08       0.32
      8.21       0.21       0.13
      8.15      -0.02       0.24
      8.55      -0.59       0.55
      8.32      -0.32      -0.13
      8.79      -0.11      -0.01
      8.33       0.17      -0.33
      7.32      -0.12       0.38
      6.68      -0.18       0.39
      6.74       0.35       1.20
      6.52      -0.15       0.78
      8.09      -0.76       1.13
      9.41      -0.12       0.63
      9.23       0.36      -0.14
      8.91       0.40       0.28
      8.69       0.51       0.44
      8.75       0.27       0.34
      9.33       0.14       0.05
      9.84       0.09      -0.08
      8.98       0.24      -0.05
      9.51       0.57      -0.06
      8.62       0.38       0.16
      8.23      -0.01      -0.36
      8.14       0.02       0.06
      8.13      -0.21       0.55
      8.11       0.34       0.71
      8.54       0.30       0.51
      8.19      -0.10       0.26
      8.29      -0.43       0.49
      8.61       0.45      -0.14
      8.68       0.54       0.57
      8.42      -0.02      -0.30
      8.66       0.10      -0.34
      7.78       0.13       0.53
      7.18       0.48       0.63
      7.62       0.10       1.17
      7.25      -0.18       1.11
      7.32       0.36       1.47
      9.76      -0.41       0.27
      9.23      -0.27       0.88
      9.45      -0.28      -0.14
      8.90       0.25       0.59
      9.09       0.53       0.11
      9.89      -0.10       0.10
      9.56      -0.07      -0.44
      9.28       0.08       0.02
      8.99       0.04       0.05
      8.07       0.14      -0.18
      8.19      -0.25       0.12
      8.32      -0.26       0.11
      8.05      -0.18       0.46
      8.31      -0.11       0.38
      8.10       0.09       0.43
      8.56      -0.11       0.72
      8.78      -0.38       0.25
      8.94       0.06      -0.51
      7.96       0.16       0.47
      8.37       0.32      -0.10
      8.79       0.35      -0.39
      8.55       0.13      -0.10
      8.68      -0.01      -0.34
      8.91       0.10       1.51
      8.88      -0.94       1.05
     10.71      -0.72       0.49
      9.06      -0.01       1.32
      8.97       0.17       0.92
      9.23       0.42       0.13
      8.85       0.22       0.25
      9.48      -0.16       0.22
      9.91      -0.05      -0.13
      9.92      -0.27      -0.14
      9.00      -0.26       0.10
      9.01      -0.01      -0.03
      9.07       0.27       0.07
      7.99      -0.41       0.09
      7.56      -0.26       0.47
      8.59      -0.47       0.65
      7.79      -0.48       0.51
      8.39      -0.20       0.75
      9.05      -0.54       0.28
      9.38      -0.60       0.34
      8.79      -0.85       0.02
      8.48      -0.28       0.32
      8.74       0.00       0.43
      9.08      -0.35       0.08
      8.75      -0.82      -0.14
      9.32      -1.54      -0.56
      9.21      -1.59       1.36
      9.59      -1.07       1.19
      9.53      -0.82       0.20
      9.12      -0.55       1.19
      9.25      -0.96       0.18
      9.37      -0.77       0.11
      9.76      -0.83      -0.04
      9.88      -0.61      -0.01
     10.29      -0.58      -0.67
      9.63      -0.63      -0.29
     10.27      -0.87      -0.52
      9.97      -0.47      -0.48
      9.30      -0.41      -0.40
      8.32      -0.56       0.52
      8.99      -0.68       0.23
      8.38      -0.37       0.52
      7.93      -0.46       0.43
      8.87      -0.15       0.04
      8.64      -0.04       0.77
      9.19      -0.57       0.12
      9.53      -0.39       0.51
      9.41      -0.61       0.26
      9.22      -0.24       0.37
      8.86      -0.29       0.36
      9.47      -0.47       0.23
      9.03      -0.91       0.28
      9.37      -1.56       0.59
      9.26      -1.17       0.28
      9.51      -1.09       0.08
      9.66      -1.25       0.29
      9.81      -0.42      -0.45
      9.78      -0.48      -0.34
      9.69      -0.71      -0.39
      9.85      -0.38      -0.43
     10.21      -0.56      -0.30
      9.74      -0.47       0.07
     10.70      -0.64      -0.29
      9.90      -0.76      -0.20
      9.62      -0.70      -0.42
      9.04       0.27       0.33
      8.94      -0.17       0.06
      9.44      -0.29       0.21
      9.91       0.11      -0.15
      9.49       0.02       0.13
      8.63       0.21       0.89
      9.65      -0.16       0.17
      9.40      -0.65       0.58
      9.71      -0.59       0.37
      9.55      -0.45       0.39
      9.47      -0.23       0.20
      9.30      -0.14       0.27
      8.94      -0.06       0.36
      9.00      -0.03       0.38
      9.21      -0.16       0.58
      9.53      -0.53       0.01
      9.39      -0.17      -0.38
      9.81      -0.14      -0.53
      9.59      -0.07      -0.55
      9.93      -0.50      -0.69
     10.05      -0.25      -0.46
      9.89      -0.60      -0.37
     10.02      -0.64       0.09
     10.60      -0.59      -0.13
     10.28      -0.69      -0.11
     10.01      -0.38      -0.16
     10.18      -0.07      -0.11
     10.03      -0.22      -0.15
     10.60      -0.18      -0.20
     10.58      -0.33      -0.31
      9.79      -0.22      -0.00
      9.41      -0.03       0.64
      9.40      -0.28       0.76
      9.22      -0.61       0.65
      9.55      -0.51       0.33
      9.91      -0.66       0.22
      9.53      -0.35       0.38
      9.24      -0.11       0.52
      9.45      -0.25       0.29
      9.42      -0.28       0.07
      9.17      -0.01       0.45
      9.53       0.26      -0.09
      9.71      -0.11      -0.08
      9.52      -0.18      -0.71
      9.80      -0.00      -0.61
      9.84      -0.30      -0.63
      9.87      -0.51      -0.58
     10.14      -0.33      -0.55
     10.34      -0.14      -0.04
     10.28      -0.50      -0.21
     10.50      -0.39      -0.21
      9.94      -0.38      -0.01
     10.14      -0.17      -0.00
      9.83      -0.29      -0.28
     10.52      -0.48      -0.02
     10.32      -0.64      -0.47
     10.34      -0.36      -0.03
      9.90      -0.50       0.20
      9.59      -0.58       0.74
      9.51      -0.40       0.56
      9.42      -0.33       0.05
      9.58      -0.28       0.39
      9.55      -0.53       0.19
      9.33      -0.82       0.38
      9.16      -0.49       0.37
      9.47      -0.29       0.32
      9.54      -0.18       0.34
      9.58      -0.29      -0.07
      9.55      -0.12      -0.14
      9.50      -0.11      -0.80
      9.97      -0.20      -0.69
      9.88      -0.28      -0.69
     10.07      -0.34      -0.43
     10.04      -0.13      -0.50
     10.29      -0.59      -0.18
     10.47      -0.70      -0.15
     10.39      -0.80      -0.14
     10.13      -0.62      -0.00
