# vtk DataFile Version 3.0
Low resolution, disturbed wind of YZ Slice at time = 48 seconds.
ASCII
DATASET STRUCTURED_POINTS
DIMENSIONS     1    26    12
ORIGIN    1882.00     635.00      15.00
SPACING      30.00      30.00      30.00
POINT_DATA             312
VECTORS DisYZ float
      6.25       0.69       0.64
      4.45      -0.02       0.44
      5.15      -0.58       0.52
      7.08       0.38      -0.16
      4.87       0.87       0.23
      5.14       1.00       0.24
      5.72       0.43      -0.41
      5.28       0.47       0.80
      6.26       0.31      -0.34
      4.45       0.11       0.45
      5.59      -0.07       0.07
      5.72       0.79      -0.26
      5.45       0.39      -0.17
      5.71       0.57       0.08
      5.61       1.36       0.04
      5.20       0.88       0.24
      4.18       0.09       0.13
      5.62       0.02      -0.09
      4.67      -0.25       0.32
      6.13       0.31       0.03
      6.60      -0.18      -0.05
      8.16       0.35      -0.51
      6.82       0.48       0.42
      6.14      -0.09      -0.58
      6.93       0.85      -0.60
      5.97       0.67       0.12
      6.51       0.38       0.13
      6.12      -0.11       0.14
      7.17      -0.09      -0.29
      6.81      -0.52      -0.15
      7.82       0.06      -0.44
      6.26       0.22       0.14
      6.02       0.23       0.20
      6.46       0.43      -0.54
      7.15       0.05      -0.43
      6.36       0.11       0.07
      5.43       0.68       0.08
      6.34       0.60      -0.55
      6.98       0.49       0.50
      6.67      -0.28      -0.76
      6.84       0.51      -0.39
      7.00       1.12       0.39
      6.98       1.16       0.70
      6.03       0.45       0.28
      7.12       0.09       0.27
      7.30       0.57       0.14
      6.76       0.97       0.14
      8.32       0.93       0.30
      6.92      -0.23       0.27
      6.45       0.47      -0.32
      7.65      -0.54      -0.15
      7.07      -0.77       0.29
      6.63      -0.23       0.51
      7.89       0.05      -0.12
      7.20       0.06       0.18
      7.58       0.43       0.08
      7.72      -0.01       0.25
      7.50      -0.21      -0.15
      6.89      -0.12       0.31
      7.79       0.10      -0.28
      7.51      -0.24      -0.20
      7.26       0.11      -0.54
      6.31      -0.37      -0.48
      6.48      -0.48       0.16
      6.42      -1.49      -0.20
      7.04      -0.53      -0.26
      6.85       0.37       0.24
      7.56      -0.06      -0.24
      6.80      -0.10       0.38
      6.50      -0.35       0.54
      7.84      -0.31       0.64
      8.95       0.82      -0.61
      7.78       0.63       0.54
      8.24       0.18      -0.27
      7.91       0.11       0.15
      7.46       0.10       0.46
      7.97      -0.95       0.22
      8.02      -0.34       0.23
      7.43      -0.07       0.26
      7.84       0.06       0.40
      7.88       0.19       0.39
      7.62       0.43       0.26
      7.78       0.29       0.19
      7.87       0.47       0.05
      8.33       0.80      -0.22
      8.07       0.69      -0.05
      8.26       0.03       0.08
      8.34       0.17      -0.42
      7.51       0.03       0.26
      7.01      -0.58      -0.43
      7.54      -0.55      -0.10
      8.12      -0.64      -0.17
      8.95      -0.38      -0.78
      8.37      -0.39      -0.13
      6.79      -0.26       0.36
      7.69      -0.41       0.71
      8.11       0.17       0.11
      7.77       0.01      -0.38
      8.32       0.06       0.03
      8.62      -0.11      -0.04
      7.78      -0.27       0.36
      8.19      -0.21       0.44
      8.15      -0.39       0.19
      8.74      -0.46      -0.02
      7.49      -0.23       0.34
      7.97       0.32       0.36
      8.79      -0.13      -0.16
      8.48      -0.33       0.02
      8.13       0.14      -0.27
      8.87      -0.21      -0.18
      9.20       0.38      -0.27
      8.43       0.83       0.17
      8.08       0.75      -0.10
      8.48       0.03       0.07
      8.23      -0.17       0.12
      7.29      -0.44       0.26
      8.20      -0.84      -0.01
      8.34      -0.85      -0.19
      9.05      -1.03      -0.75
      9.00      -1.06      -0.27
      8.03      -0.74       0.37
      7.50      -0.24       0.47
      8.68      -0.61       0.07
      8.75      -0.68      -0.59
      9.04      -0.74      -0.00
      9.03      -0.29       0.08
      8.48      -0.31       0.50
      8.60      -0.88       0.51
      8.75      -0.69       0.21
      8.56      -0.33      -0.02
      8.89      -0.29       0.29
      8.41      -0.29       0.06
      8.37       0.01       0.22
      8.66      -0.42      -0.25
      8.70      -0.50      -0.46
      8.57       0.11      -0.12
      8.64      -0.23      -0.20
      8.69      -0.39       0.22
      8.57      -0.16       0.09
      8.84      -0.42       0.10
      8.24      -0.45      -0.09
      7.85      -0.15       0.74
      7.73      -0.18       0.16
      8.60      -0.44      -0.41
      9.11      -0.52      -0.76
      9.32      -0.55      -0.16
      8.95      -0.71       0.54
      8.70      -0.44       0.09
      8.91      -0.48      -0.17
      9.07      -0.64      -0.30
      9.08      -0.96      -0.22
      8.95      -0.43       0.06
      8.66      -0.13       0.28
      8.65       0.60       0.66
      8.43       0.25       0.25
      8.79      -0.12      -0.12
      8.78      -0.92      -0.03
      8.48      -0.98      -0.03
      8.07      -0.58       0.18
      8.65      -0.50      -0.15
      8.66      -0.50      -0.02
      9.14      -0.06      -0.22
      8.69       0.14       0.11
      8.41      -0.19       0.38
      8.63      -0.03       0.10
      9.69      -0.34       0.17
      9.38      -0.23       0.10
      8.52      -0.34       0.42
      8.24       0.23       0.32
      9.11       0.03      -0.22
      9.34      -0.58      -0.51
      8.98      -1.00      -0.52
      8.82      -0.60       0.15
      8.88      -0.37       0.33
      9.15      -0.69      -0.31
      9.20      -0.62      -0.23
      9.48      -0.40      -0.53
      9.27      -0.53      -0.01
      9.24      -0.55      -0.32
      8.79      -0.35       0.37
      8.62      -0.04       0.34
      9.19      -0.31       0.13
      8.53      -0.55       0.43
      9.15      -0.43      -0.22
      8.99      -0.46       0.22
      9.58      -0.46      -0.36
      9.04      -0.41      -0.42
      8.92      -0.50      -0.74
      8.36      -0.37      -0.30
      8.29      -0.20       0.42
      8.86       0.00       0.76
      8.68      -0.10       0.10
      9.21      -0.13       0.37
      9.31       0.19       0.28
      9.13       0.37       0.30
      9.03       0.32       0.09
      9.31       0.14      -0.15
      9.55      -0.28      -0.09
      9.51      -0.80      -0.31
      8.96      -0.68       0.37
      9.33      -0.67      -0.42
      9.49      -0.90      -0.48
      9.54      -0.88      -0.40
     10.00      -1.04      -0.26
     10.35      -0.47      -0.32
      9.54      -0.08       0.14
      8.83       0.02       0.47
      9.22      -0.14       0.08
      9.21      -0.71       0.26
      9.55      -0.82      -0.14
      9.31      -0.81       0.17
     10.02      -0.93      -0.41
      9.46      -0.74      -0.30
      9.70      -0.96      -0.53
      8.97      -1.07      -0.67
      8.34      -0.33      -0.16
      8.34      -0.11       0.02
      8.53       0.35      -0.21
      8.67       0.49       0.16
      8.79      -0.03       0.39
      9.10      -0.06      -0.07
      9.21      -0.29      -0.02
     10.01      -0.64      -0.29
      9.56      -0.44       0.01
      9.45      -0.34      -0.19
      9.92      -0.37      -0.11
      9.19      -0.76      -0.12
      9.58      -0.80      -0.41
      9.62      -1.23       0.23
     10.15      -1.05      -0.45
     10.40      -0.66      -0.53
     10.17      -0.21      -0.23
      9.46      -0.17       0.45
      9.34      -0.16       0.54
      8.53      -0.38       0.05
      9.58      -0.52       0.24
      9.62      -1.03      -0.11
      9.52      -0.76       0.01
      9.81      -0.79      -0.46
      9.68      -1.33      -0.36
     10.08      -1.02      -0.21
      9.53      -1.06      -0.28
      8.88      -0.55       0.30
      9.17      -0.25       0.06
      9.50       0.07      -0.17
      9.27       0.07       0.26
      9.22       0.17       0.22
      9.40      -0.26      -0.07
     10.02      -0.49      -0.59
      9.68      -0.80       0.02
      9.89      -0.61      -0.13
      9.64      -0.73      -0.12
      9.65      -0.63      -0.14
      9.82      -1.09       0.28
      9.83      -1.28      -0.28
     10.22      -1.20      -0.55
      9.77      -0.85      -0.28
      9.61      -0.43      -0.14
      9.47      -0.32       0.23
     10.04      -0.51       0.34
      9.51      -0.96       0.03
      9.14      -0.81       0.14
      9.66      -0.67      -0.16
      9.47      -0.70       0.05
     10.05      -0.34      -0.53
      9.43      -1.00      -0.12
      9.06      -1.17      -0.06
      9.55      -1.07      -0.36
      9.05      -0.54      -0.02
      9.23      -0.26       0.08
      9.08      -0.18       0.13
      8.91      -0.21       0.18
      8.83      -0.18      -0.02
      9.90      -0.64      -0.04
      9.90      -0.85      -0.10
      9.90      -0.68      -0.11
      9.80      -0.45       0.07
      9.25      -0.72       0.16
      9.20      -0.66      -0.01
      9.85      -0.65       0.08
      9.67      -0.83      -0.17
     10.10      -0.84      -0.25
      9.68      -0.86      -0.11
     10.25      -0.49      -0.00
      9.67      -0.63       0.10
      9.39      -0.15       0.62
      9.14      -0.52       0.09
      9.21      -0.26       0.25
      9.55      -0.12      -0.28
      9.66      -0.35      -0.03
      9.89      -0.64       0.03
     10.01      -0.99      -0.08
      9.91      -1.05       0.02
      9.67      -0.75      -0.17
      9.81      -0.67       0.09
      9.50      -0.97       0.04
      9.71      -0.93       0.10
      9.43      -0.88       0.20
      9.59      -0.59       0.28
     10.22      -0.73       0.04
      9.77      -0.98      -0.06
     10.17      -1.07      -0.20
     10.12      -1.03      -0.45
      9.87      -0.79       0.31
      9.57      -0.88       0.18
      9.78      -0.84       0.28
     10.10      -0.67      -0.03
     10.49      -1.28      -0.33
     10.62      -1.22      -0.15
     10.03      -1.63       0.10
     10.50      -0.88      -0.12
     10.27      -0.80       0.39
