# vtk DataFile Version 3.0
Low resolution, disturbed wind of XZ Slice at time = 45 seconds.
ASCII
DATASET STRUCTURED_POINTS
DIMENSIONS    47     1    12
ORIGIN     635.00    1000.00      15.00
SPACING      30.00      30.00      30.00
POINT_DATA             564
VECTORS DisXZ float
      4.71       0.24       0.64
      5.11       0.90      -0.08
      5.36      -0.47       0.06
      4.80       0.22      -0.07
      4.33      -0.35       0.11
      5.60      -0.59      -0.33
      4.60      -0.47      -0.04
      4.10      -0.17      -0.20
      4.59       0.04       0.17
      4.97      -0.02      -0.37
      5.34      -0.07      -0.79
      5.33      -0.19       0.63
      3.95       0.47      -0.10
      3.64       0.47       0.35
      3.59       0.24       0.24
      4.04       0.44       0.53
      5.10       0.65       0.42
      5.80      -0.07       0.10
      6.23      -0.28       0.11
      6.02      -0.43       0.03
      4.58      -0.40      -0.58
      2.84      -0.48       0.83
      3.53       0.33       0.28
      5.29      -0.68       0.78
      4.13      -0.81       0.39
      4.31       0.11       0.81
      4.92      -0.30       0.48
      4.74       0.38      -0.16
      4.90       0.01       0.41
      5.51       0.88      -0.44
      4.91       1.09       0.18
      4.33       0.29       0.32
      4.41      -0.07      -0.48
      4.23       1.36       0.06
      4.46       0.02      -0.36
      4.81      -1.01       0.29
      4.93       0.10      -0.08
      4.57       0.56      -0.32
      4.91       0.26      -0.26
      5.01       1.46      -0.01
      5.43      -0.11      -0.54
      5.66       1.49      -0.19
      5.62       0.55       0.21
      5.16       0.33       0.68
      5.38       0.95       0.02
      5.35       0.08      -0.21
      5.31       0.21       0.06
      5.96      -0.36      -0.25
      4.65      -1.11       0.08
      5.43       0.18       0.06
      4.95       0.06       0.48
      5.05       0.40       0.60
      6.33      -0.39      -0.00
      5.80      -0.58      -0.16
      5.56       0.05       0.16
      6.09       0.95      -0.30
      6.35       1.09       0.28
      6.49       0.70      -0.18
      6.70       0.65      -0.04
      2.73       0.83       0.46
      1.56      -0.10       0.59
      1.83      -0.59       0.13
      2.28      -0.05       0.29
      3.07      -0.14      -0.13
      3.47      -0.17      -0.02
      3.99       0.18       0.20
      3.93       0.11      -0.01
      4.12      -0.85       0.94
      4.91      -0.14       0.76
      2.72       0.59       0.12
      6.35      -0.94      -0.07
      6.44       0.43       0.38
      7.38      -0.73       0.72
      7.20      -0.71       0.28
      6.38      -0.38       0.62
      6.17      -0.38       0.64
      6.93       0.67      -0.73
      6.22       0.18      -0.95
      6.39       1.03       0.77
      7.17       0.58       0.06
      6.28       0.36       0.15
      6.32       0.32      -0.29
      6.78      -0.30       0.02
      6.49       0.64       0.05
      6.45       0.85      -0.34
      6.14       0.07      -0.01
      6.09       0.01      -0.91
      6.53       0.34      -0.25
      6.29       0.59       0.08
      7.07      -0.23      -0.20
      6.61       0.26      -0.01
      6.95       0.47      -0.14
      6.50       0.64       0.17
      6.55      -0.00       0.04
      6.70      -0.52      -0.08
      6.35      -0.21       0.28
      6.58      -0.06       0.44
      7.19      -0.51       0.29
      6.90       0.15       0.03
      7.09      -0.42       0.37
      6.49       0.00       0.13
      6.54       0.34       0.20
      6.58       0.13       0.37
      6.64       0.33       0.59
      6.71      -0.01       0.23
      6.59      -0.11       0.08
      2.78       0.01       0.60
      3.63       0.09       0.73
      3.53      -0.26       0.40
      3.23       0.05       0.22
      3.53      -0.32       0.39
      3.80      -0.38       0.51
      3.26      -0.28       0.68
      3.72       0.06       0.59
      3.75       0.24       0.39
      3.94       0.03       0.56
      4.25      -0.30       0.56
      7.94      -0.36       0.12
      7.30      -0.08       0.47
      7.41       0.11       0.44
      7.16      -0.35       0.33
      7.22      -0.37       0.53
      8.07      -0.26       0.33
      7.75      -0.33      -0.05
      6.84       0.46      -0.52
      6.46       0.39       0.22
      6.74       0.16       0.24
      6.68      -0.74       0.53
      7.44      -0.15      -0.40
      6.90      -0.24       0.56
      7.79       0.16       0.18
      7.31       0.34      -0.09
      7.09       0.27      -0.18
      7.20       0.57       0.29
      6.85       0.40      -0.03
      6.45      -1.59       0.30
      7.62      -0.81      -0.62
      7.65       0.02      -0.92
      6.52       0.46       0.70
      6.97       0.36      -0.14
      7.27       0.41       0.08
      7.67      -0.29       0.50
      7.60      -0.21       0.41
      7.18      -0.48       0.21
      7.32      -1.40       0.08
      7.03      -1.08       0.28
      7.08       0.08       0.61
      7.51      -0.57       0.55
      7.81       0.08      -0.21
      7.51       0.08       0.52
      6.78       0.06       0.25
      7.29       0.00       0.33
      7.11       0.26       0.75
      6.51      -0.58       0.52
      3.69      -0.97       1.01
      4.34      -0.92       0.54
      4.76      -1.00      -0.33
      4.83      -0.34       0.41
      4.36      -0.30       1.04
      4.23       0.12       0.67
      4.29       0.04       0.70
      4.69       0.09       0.64
      4.21       0.28       0.30
      4.53       0.73       0.07
      7.71       1.46       0.17
      7.93       1.03       0.11
      7.95       0.41       0.83
      8.22      -0.22       0.51
      8.17       0.34       0.22
      8.19      -0.08       0.28
      8.54      -0.09      -0.06
      8.36       0.14      -0.14
      7.60      -0.01       0.56
      7.40       0.70      -0.09
      7.66       0.53       0.27
      7.99      -0.67       0.16
      8.15       0.11       0.13
      8.12       0.04      -0.61
      7.43       0.39       0.46
      7.55       0.14      -0.28
      7.42       0.72       0.34
      7.81      -0.41      -0.41
      7.87      -0.52      -0.01
      7.97      -0.32      -0.24
      8.19      -0.21      -0.20
      7.57       0.02       0.17
      7.81      -0.47       0.10
      7.98      -0.76      -0.17
      8.76      -0.37       0.31
      9.42      -0.89      -0.06
      8.34      -0.53       0.17
      7.93      -0.93       0.27
      7.32      -1.11       0.43
      7.36      -1.49       0.87
      6.97      -0.77       0.36
      7.65       0.31       0.31
      6.37      -0.05       0.51
      6.30      -0.27       0.49
      6.47      -0.06       0.31
      7.36       0.31      -0.49
      7.46      -0.11      -0.06
      3.06      -0.05       0.64
      3.32      -0.30       0.60
      3.26      -0.55       0.60
      3.59      -1.13       0.52
      3.73      -0.74       0.73
      4.11      -0.44       0.80
      3.79      -0.37       0.79
      4.18       0.00       0.79
      4.61      -0.17       0.53
      4.75      -0.14       0.39
      7.94       0.16      -0.18
      8.10       0.78       0.26
      7.99       0.94       0.30
      8.09       0.50       0.36
      8.37       0.51       0.53
      8.79       0.15       0.51
      8.60      -0.19      -0.20
      8.51       0.11       0.05
      8.30       0.19       0.25
      8.35       0.09       0.19
      8.40      -0.07       0.14
      8.43       0.10       0.01
      8.78      -0.18      -0.60
      8.35      -0.18       0.20
      8.05      -0.20      -0.08
      8.18       0.42      -0.05
      7.92      -0.64       0.70
      8.09      -0.62      -0.03
      8.48      -1.00       0.07
      8.03      -0.89      -0.03
      8.66      -0.37       0.29
      8.75      -0.44       0.05
      9.05      -0.64       0.23
      8.37      -0.53       0.02
      9.41      -0.36      -0.00
      8.67      -0.07       0.11
      8.59       0.16       0.09
      9.10      -0.40       0.21
      8.07      -1.34       0.23
      7.62      -1.12       1.06
      7.55      -0.78       0.92
      7.64       0.10       0.61
      7.21      -0.22       1.04
      7.75       0.76      -0.04
      7.66       0.54      -0.57
      7.81       0.38      -0.73
      7.83       0.60      -0.31
      5.80       0.07      -0.28
      5.93      -0.02      -0.07
      5.77      -0.11       0.08
      5.63      -0.37       0.50
      5.84      -0.31       0.49
      6.45      -0.16       0.59
      6.41       0.04       0.79
      6.52       0.43       0.42
      6.42       0.16       0.18
      6.66      -0.39       0.27
      8.35      -0.74       0.15
      8.54      -0.26       0.32
      8.59       0.39       0.24
      8.13       0.89       0.39
      8.21       0.64       0.66
      8.53       0.12       0.26
      8.65      -0.13       0.07
      8.47      -0.42      -0.05
      8.91      -0.10      -0.03
      9.20       0.11       0.28
      8.92       0.37      -0.14
      8.78       0.51      -0.28
      8.74       0.19       0.10
      8.10       0.04       0.37
      8.04      -0.01       0.22
      8.27       0.35       0.35
      8.13       0.10       0.40
      7.72       0.22       0.25
      7.88      -0.43      -0.01
      8.24      -0.66      -0.21
      8.46      -0.60       0.32
      8.42      -0.34       0.13
      8.52      -0.44      -0.03
      8.55      -1.02       0.17
      8.88      -0.34       0.30
      9.06      -0.07       0.45
      9.52       0.29      -0.26
      8.44      -0.28      -0.32
      8.08      -0.59       0.37
      7.86      -1.42       0.78
      8.15      -0.85       0.89
      7.55      -0.36       1.11
      8.49       0.49       0.77
      8.56       0.32      -0.10
      8.42      -0.40      -0.73
      8.72      -0.56      -0.90
      8.39       0.16      -0.48
      8.17       0.10       0.05
      7.85      -0.31       0.22
      8.11       0.13       0.56
      8.17      -0.23       0.12
      8.28      -0.23       0.15
      8.59      -0.42       0.14
      8.55      -1.01      -0.08
      8.71      -0.84       0.25
      8.54       0.06       0.54
      8.19       0.28       0.39
      8.67       0.21       0.21
      8.88       0.14       0.22
      8.69       0.20       0.62
      9.31       0.45       0.16
      8.71       0.78       0.52
      8.97       0.58       0.72
      9.13      -0.25       0.12
      9.17      -0.26       0.07
      9.10      -0.36       0.09
      9.04      -0.27       0.28
      8.76      -0.35       0.10
      9.00      -0.49      -0.32
      9.15       0.03      -0.17
      8.66       0.03       0.58
      8.36      -0.25       0.49
      8.50       0.03       0.22
      9.04       0.44       0.27
      8.60       0.37       0.35
      8.31       0.05       0.08
      8.67      -0.50      -0.52
      8.81      -0.56       0.01
      9.06      -0.81       0.15
      9.30      -0.56       0.00
      8.83      -0.68       0.06
      8.86      -0.28       0.49
      9.23      -0.07      -0.01
      9.30       0.08      -0.04
      8.91      -0.37       0.00
      8.68      -0.56       0.48
      8.37      -1.16       0.85
      8.01      -1.06       1.18
      8.36      -0.96       1.56
      9.50      -0.98       1.35
      8.87      -1.58       0.75
      9.49      -1.36      -0.98
      8.61       0.03      -0.39
      8.56       0.08       0.17
      8.99      -0.94      -0.01
      8.44      -0.79       0.10
      8.28      -0.47       0.33
      8.32      -0.77       0.37
      8.28      -1.12       0.53
      8.81      -1.47       0.41
      9.24      -1.09       0.14
      8.51      -1.28       0.24
      8.19      -0.99       0.34
      8.50      -0.98       0.32
      8.54      -0.91       0.49
      8.54      -1.15       0.55
      8.82      -1.43       0.42
      8.93      -0.45       0.44
      9.09       0.27       0.73
      9.51      -0.21       0.54
      9.19      -0.33       0.51
      8.97      -0.50       0.25
      8.81      -0.83       0.41
      8.82      -0.79       0.22
      8.62      -0.71      -0.33
      8.76      -0.73      -0.45
      8.75      -0.11      -0.08
      9.00      -0.02       0.35
      9.45      -0.23       0.04
      9.84      -0.05      -0.26
      9.48      -0.04      -0.09
      9.04       0.19       0.53
      9.10       0.47       0.17
      9.41       0.01      -0.44
      9.08      -0.12      -0.22
      9.09      -0.28       0.00
      9.32      -0.35       0.10
      9.40      -0.69      -0.03
      8.91      -0.39       0.69
      8.91      -0.23       0.25
      8.87       0.19       0.10
      8.95       0.02       0.05
      8.55      -0.29       0.17
      8.42      -0.07       0.74
      8.66      -0.24       0.71
      8.93      -0.59       0.82
      9.05      -1.34       0.93
      9.37      -1.85       0.40
      9.58      -0.72       0.22
      9.18      -0.32       0.13
      8.77      -0.28       0.11
      8.76      -0.26       0.16
      8.99      -0.46       0.55
      8.83      -0.57       0.11
      9.05      -0.72       0.16
      9.67      -0.77       0.00
      9.56      -1.12      -0.20
      8.91      -1.02       0.65
      9.16      -0.59       0.48
      8.78      -0.55       0.33
      8.51      -1.04       0.47
      8.79      -1.08       0.38
      9.02      -1.15       0.38
      8.58      -1.01       0.46
      8.42      -0.71       0.55
      8.57      -0.71       0.57
      8.80      -0.96       0.42
      9.23      -1.03       0.26
      9.29      -0.86       0.44
      8.89      -0.98       0.74
      8.69      -1.36       0.58
      9.14      -1.04      -0.23
      9.18      -0.81      -0.56
      8.92      -0.91      -0.26
      8.78      -0.72      -0.19
      9.08      -0.08      -0.04
      9.31       0.13      -0.07
      9.02       0.07      -0.01
      8.89       0.01       0.04
      9.24      -0.16      -0.12
      9.49      -0.17      -0.34
      9.47      -0.10      -0.45
      9.63      -0.30      -0.46
      9.87      -0.41      -0.49
     10.06      -0.53      -0.43
      8.87      -0.66       0.54
      9.24      -0.78       0.02
      9.22      -0.36       0.03
      9.27       0.23       0.16
      9.35      -0.02      -0.02
      9.73      -0.14       0.24
      9.50      -0.24       0.61
      9.25      -0.57       0.57
      8.82      -0.30       0.47
      8.91      -0.06       0.51
      9.24      -0.30       0.41
      8.87      -0.27       0.35
      8.81      -0.43       0.48
      9.03      -0.75       0.82
      9.13      -0.67       0.94
      9.17      -0.68       0.54
      9.14      -0.85       0.30
      9.41      -0.36      -0.16
      9.76      -0.67       0.31
      9.48      -1.20       0.57
      9.17      -0.67       0.68
      9.13      -0.25       0.43
      9.32      -0.24      -0.04
      9.34      -0.41      -0.01
      9.01      -0.49       0.24
      9.21      -0.67       0.24
      9.38      -0.58       0.08
      9.51      -0.83       0.20
      9.67      -1.19       0.03
      9.48      -1.06      -0.34
      9.52      -0.81       0.37
      9.97      -1.06       0.25
     10.18      -1.39      -0.01
      9.91      -0.69      -0.36
      9.62      -0.79      -0.06
      9.40      -0.93       0.16
      9.40      -0.59       0.17
      9.10      -0.30      -0.12
      8.94      -0.09      -0.05
      9.09      -0.00       0.11
      9.26       0.09       0.13
      9.24       0.11       0.21
      9.48      -0.29       0.17
      9.92      -0.61      -0.06
     10.30      -0.63      -0.26
     10.14      -0.36      -0.36
     10.17      -0.40      -0.28
      9.44      -0.62       0.31
      9.51      -0.35       0.08
      9.67      -0.27       0.05
      9.80      -0.40       0.09
      9.84      -0.05       0.09
      9.88      -0.01       0.12
      9.33      -0.03       0.43
      9.24      -0.25       0.55
      9.54      -0.14       0.50
      9.42      -0.08       0.22
      9.06      -0.55       0.14
      9.04      -1.23       0.41
      9.39      -0.97       0.41
      9.41      -0.57       0.50
      9.32      -1.12       0.71
      9.49      -1.57       0.95
      9.60      -0.60       0.69
      9.22      -0.25      -0.02
      8.71      -0.41       0.45
      8.67      -0.45       0.93
      8.88      -0.32       0.82
      9.34      -0.21       0.49
      9.95      -0.21       0.37
      9.92      -0.46       0.10
     10.02      -0.48       0.03
     10.13      -0.59       0.13
      9.63      -0.55       0.23
      9.58      -0.69       0.45
      9.35      -0.82       0.18
      9.33      -1.17       0.07
      9.56      -1.25      -0.11
      9.76      -1.08      -0.02
      9.84      -1.16       0.10
      9.80      -1.04       0.17
      9.56      -0.81       0.24
      9.20      -1.02       0.08
      9.23      -1.05       0.07
      9.48      -0.85      -0.22
      9.16      -0.90      -0.27
      8.96      -0.71      -0.05
      8.95      -0.36      -0.03
      9.04      -0.20       0.00
      9.36      -0.47      -0.04
      9.84      -0.62      -0.26
     10.30      -0.67      -0.32
     10.33      -0.62      -0.29
     10.07      -0.43      -0.06
      9.59      -0.32       0.15
      9.63      -0.58      -0.12
      9.79      -0.38      -0.01
      9.73      -0.09      -0.02
      9.66      -0.34       0.39
      9.48      -0.27       0.25
      9.62       0.05      -0.02
      9.62      -0.18       0.14
      9.35      -0.32       0.18
      9.08      -0.36       0.29
      9.06      -0.38       0.48
      9.24      -0.22       0.60
      9.24      -0.09       0.51
      9.02      -0.03       0.44
      9.17      -0.08       0.54
      9.26      -0.00       0.56
      9.05       0.09       0.62
      8.99      -0.05       0.41
      8.86      -0.20       0.32
      9.12      -0.40       0.43
      9.52      -0.10       0.35
      9.67       0.35       0.11
      9.84       0.42       0.32
      9.98       0.32       0.29
      9.97       0.26      -0.14
     10.01      -0.18      -0.16
      9.95      -0.37       0.31
      9.84      -0.42       0.34
      9.89      -0.60       0.22
      9.85      -0.66       0.21
      9.82      -0.75       0.06
      9.88      -0.80      -0.20
      9.82      -0.83      -0.20
      9.70      -0.90       0.22
      9.79      -1.07       0.21
      9.99      -1.13      -0.13
      9.87      -0.93      -0.23
      9.68      -0.96      -0.09
      9.78      -1.04      -0.09
      9.86      -0.83      -0.01
      9.72      -0.63       0.18
      9.66      -0.63       0.27
      9.79      -0.73       0.25
      9.74      -0.93       0.09
      9.71      -0.89      -0.03
      9.98      -0.75      -0.12
     10.07      -0.66      -0.19
