# vtk DataFile Version 3.0
Low resolution, disturbed wind of YZ Slice at time = 36 seconds.
ASCII
DATASET STRUCTURED_POINTS
DIMENSIONS     1    26    12
ORIGIN    1252.00     635.00      15.00
SPACING      30.00      30.00      30.00
POINT_DATA             312
VECTORS DisYZ float
      6.73       0.87      -0.09
      6.99       0.49      -0.22
      6.06       0.29       0.14
      4.95       0.14      -0.17
      4.47       0.77       0.10
      4.74       0.12      -0.07
      6.47       0.74      -0.30
      5.46       0.85       0.38
      4.56       0.31       0.43
      4.46       0.45      -0.56
      6.26      -0.26      -0.35
      5.89       0.48      -0.43
      3.93       0.73       0.86
      5.23      -0.63      -0.42
      6.55      -0.75      -0.12
      5.53      -0.10       0.16
      4.20       0.16       0.33
      5.22      -0.07      -0.13
      6.71      -0.03      -0.27
      5.04       0.67       0.10
      5.16       0.21      -0.32
      6.38       0.62       0.03
      5.93      -0.44       0.06
      7.59       0.59      -0.23
      4.08      -0.37       0.57
      6.10      -0.31      -0.05
      8.84       0.44      -0.26
      6.98      -0.33       0.07
      7.26      -0.06      -0.11
      6.57      -0.16       0.16
      6.88       0.38       0.07
      6.75      -0.17       0.22
      7.41      -0.34      -0.63
      7.11      -0.20      -0.12
      6.46       0.00       0.21
      7.01       0.20      -0.13
      6.42       0.64       0.16
      5.82       0.01       0.13
      4.49       0.23       0.33
      5.57      -0.86      -0.34
      7.44      -0.72      -0.67
      7.24      -0.31      -0.96
      6.60      -0.09      -0.16
      6.15       0.47       0.08
      7.17       0.71      -0.16
      6.97       0.07       0.08
      5.71       0.05       0.23
      6.36      -0.28       0.54
      6.87      -0.06       0.12
      7.52       0.23      -0.46
      5.91      -0.69      -0.01
      6.36      -0.26       0.21
      9.26       0.39       0.17
      7.67       0.17       0.00
      8.63       0.15      -0.04
      7.17      -0.03       0.20
      6.26      -0.69       0.27
      6.44      -0.38       0.67
      7.61      -0.22      -0.15
      7.31      -0.06       0.23
      7.63       0.53      -0.11
      7.23       0.40       0.23
      6.59       0.36       0.18
      5.72       0.15       0.68
      6.17      -0.62       0.66
      6.54      -0.10      -0.38
      6.87      -0.07      -0.54
      7.46      -0.20      -0.71
      7.14      -0.15      -0.07
      7.25      -0.16      -0.26
      7.20       0.10      -0.11
      7.63       0.58      -0.01
      7.35       0.79       0.04
      7.51       0.72       0.19
      8.09       0.24       0.17
      7.61       0.32       0.44
      7.51      -0.53       0.27
      7.84      -0.29       0.34
      8.80      -0.19      -0.11
      8.86      -0.07       0.02
      8.30      -0.06       0.06
      7.99      -0.17       0.63
      7.19      -0.39      -0.06
      7.19      -0.64       0.51
      8.49      -0.31      -0.17
      8.52      -0.36       0.48
      8.28       0.21       0.13
      8.05       0.41      -0.19
      7.49       0.74      -0.01
      6.71       0.59       0.19
      6.38       1.15      -0.05
      6.36       0.91       0.03
      6.30       0.02       0.13
      7.63      -0.44      -0.15
      7.27      -0.42      -0.14
      8.14      -0.38       0.00
      7.48      -0.06       0.14
      8.55       0.41      -0.47
      8.60       0.16      -0.34
      8.35      -0.05       0.19
      7.99      -0.20       0.36
      7.89      -0.10       0.48
      7.72       0.26       0.23
      7.94       0.26      -0.03
      8.93      -0.23       0.09
      8.14      -0.84       0.09
      7.33      -1.01      -0.05
      7.34      -0.69       0.75
      8.85      -0.64      -0.11
      8.42      -0.51       0.17
      8.86      -0.28       0.17
      9.00      -0.03      -0.05
      8.93      -0.10      -0.10
      8.47       0.47       0.03
      7.98       0.45      -0.07
      6.92       0.40      -0.00
      6.44       0.08       0.07
      6.24       0.32       0.34
      7.36      -0.30       0.22
      8.20      -0.09      -0.11
      7.99      -0.73       0.20
      8.68      -0.60      -0.07
      9.05      -0.21      -0.06
      8.75       0.12       0.01
      9.04      -0.32      -0.07
      9.46      -0.35       0.18
      8.93      -0.17       0.47
      9.18       0.21       0.02
      8.53       1.00       0.28
      7.85       0.97       0.23
      8.80       0.13      -0.12
      8.76      -0.34       0.60
      7.61      -0.85       0.35
      7.69      -0.27       0.50
      7.64      -0.24       0.34
      7.73      -0.15       0.13
      8.70      -0.27       0.09
      8.88      -0.38      -0.50
      9.31      -0.33       0.03
      8.95       0.28      -0.11
      8.20       0.18       0.33
      8.05      -0.16       0.08
      7.59      -0.47       0.33
      7.86      -0.95       0.43
      8.26      -0.74      -0.02
      8.81      -1.12      -0.13
      8.91      -1.23       0.17
      9.55      -0.73      -0.10
      9.12      -0.50      -0.52
      9.08      -0.30       0.01
      9.08      -0.34      -0.04
      9.58      -0.26      -0.01
      9.54       0.22       0.13
      9.37       0.12      -0.08
      8.57       0.35       0.05
      8.18       0.40       0.09
      8.82      -0.58       0.22
      8.88      -0.51       0.65
      8.47       0.16       0.47
      8.78       0.28      -0.05
      7.99      -0.08       0.78
      8.48      -0.15       0.21
      8.71      -0.20       0.01
      9.08      -0.60       0.11
      9.67      -0.60      -0.05
      8.96      -0.21      -0.13
      8.51      -0.02       0.01
      8.27      -0.36       0.17
      8.74       0.29      -0.00
      8.42      -0.33       0.46
      8.47      -0.75       0.10
      8.53      -0.97       0.36
      9.27      -1.15       0.16
      9.44      -1.03       0.09
      9.58      -0.76      -0.19
      9.53      -0.51      -0.05
      9.83      -0.18      -0.04
      9.35      -0.14      -0.03
     10.44       0.15      -0.42
      9.90       0.25      -0.08
      9.83       0.51       0.09
      8.84       0.55       0.29
      8.48      -0.56      -0.03
      8.77      -0.18       0.17
      8.23      -0.39       0.12
      8.61      -0.39       0.18
      8.63       0.05       0.72
      8.81      -0.34      -0.11
      9.18      -0.60       0.30
      9.23      -0.74       0.50
      9.51      -0.72      -0.01
      9.01      -0.25       0.32
      8.93      -0.69       0.10
      8.85      -0.56      -0.49
      8.17      -1.05       0.24
      8.54      -0.76       0.77
      8.60      -0.86       0.13
      8.62      -0.87       0.37
      8.77      -1.08       0.04
      9.18      -0.97      -0.12
      9.73      -0.49       0.06
     10.24      -0.31       0.03
     10.08      -0.11       0.37
      9.21      -0.16       0.20
      9.59       0.29       0.27
     10.11       0.54      -0.16
      9.83       0.47       0.35
      9.54       0.54       0.33
      8.31      -0.39       0.24
      9.00      -0.41      -0.04
      8.65      -0.21       0.39
      9.32      -0.67      -0.09
      9.18      -0.70       0.25
      9.20      -0.84       0.29
      9.30      -0.64       0.20
      9.45      -0.62       0.37
      9.72      -0.64      -0.28
      9.43      -0.64      -0.00
      8.83      -0.21       0.42
      8.72      -0.44       0.21
      8.62      -1.12       0.35
      8.97      -0.94      -0.43
      8.84      -0.79       0.04
      9.04      -0.73       0.12
      9.01      -0.57       0.23
      9.28      -0.83       0.13
     10.02      -0.68       0.06
      9.70      -0.48       0.03
      9.86      -0.20      -0.08
      9.70      -0.05       0.23
      9.30       0.33       0.30
      9.49       0.43       0.39
      9.36       0.45       0.41
      9.35       0.41       0.24
      8.90      -0.07       0.39
      9.17       0.13       0.20
      8.86      -0.08       0.29
      8.98      -0.15       0.28
      9.20      -0.38       0.31
      9.32      -0.20       0.16
      9.23       0.02      -0.10
      9.54       0.12       0.10
      9.36      -0.06       0.18
      9.40      -0.50       0.13
      9.42      -0.39       0.16
      9.19      -0.38       0.44
      9.27      -0.41       0.07
      9.24      -0.44      -0.11
      9.04      -0.37       0.23
      9.15      -0.30       0.00
      9.15      -0.29       0.28
      9.62      -0.05      -0.03
     10.02      -0.23       0.01
     10.44      -0.36      -0.23
     10.52       0.02      -0.25
     10.23       0.21       0.15
      9.99       0.34       0.07
      9.73       0.30       0.12
      9.79       0.39       0.11
      9.74       0.18      -0.16
      8.37      -0.06       0.48
      8.97       0.21       0.39
      8.85       0.13      -0.05
      9.34       0.10       0.76
      9.28      -0.06       0.25
     10.01       0.12       0.18
      9.51       0.23      -0.05
      9.22       0.16       0.23
      9.00       0.25       0.32
      9.41       0.18       0.21
      9.68       0.04       0.34
     10.00      -0.36       0.45
      9.99      -0.49       0.09
      9.88      -0.35      -0.06
      9.39      -0.17      -0.00
      9.01      -0.34       0.34
      9.28      -0.32      -0.01
      9.82      -0.15      -0.21
     10.44      -0.16      -0.03
     10.65      -0.28      -0.33
     10.61       0.00      -0.52
      9.63       0.01       0.09
      9.91      -0.24       0.01
      9.98      -0.18      -0.50
     10.26      -0.71       0.12
     10.50      -0.53      -0.47
      8.73      -0.24       0.25
      8.79      -0.19       0.21
      9.22      -0.21       0.23
      9.46      -0.31       0.47
      9.79       0.20       0.14
      9.35       0.36       0.29
      9.37       0.24       0.13
      9.09      -0.01       0.07
      9.36       0.18       0.22
      9.32       0.10       0.30
      9.51      -0.12       0.39
      9.91       0.13       0.41
      9.96       0.32       0.14
     10.17       0.22      -0.16
     10.14       0.10       0.24
      9.13       0.00       0.28
      9.55      -0.03       0.18
      9.53      -0.11       0.05
     10.54      -0.29      -0.10
     10.88      -0.12      -0.38
     10.11      -0.14      -0.05
     10.03      -0.25      -0.09
     10.02       0.09      -0.26
      9.99      -0.28      -0.43
     10.01      -0.01      -0.02
      9.68      -0.37      -0.15
