# vtk DataFile Version 3.0
Low resolution, disturbed wind of YZ Slice at time = 21 seconds.
ASCII
DATASET STRUCTURED_POINTS
DIMENSIONS     1    26    12
ORIGIN    1252.00     635.00      15.00
SPACING      30.00      30.00      30.00
POINT_DATA             312
VECTORS DisYZ float
      7.09       0.82      -0.15
      5.44       0.16       0.19
      5.43       0.16       0.27
      5.77       0.73       0.09
      4.42       0.50      -0.10
      3.83       0.03       0.30
      5.56       0.30      -0.10
      5.51       0.57       0.05
      5.03       0.42       0.14
      4.99      -0.13       0.27
      4.77      -0.21       0.41
      5.44      -0.09       0.00
      4.40      -0.55      -0.52
      5.83       0.45      -0.01
      5.59       0.57       0.09
      5.09       1.39       0.24
      4.86       1.21       0.35
      5.48       0.88      -0.58
      5.35       0.90      -0.34
      4.45      -0.18       0.38
      5.14       0.12       0.39
      5.54       0.68       0.03
      4.90       0.07       0.19
      6.66      -1.04      -0.33
      6.62      -0.67      -0.27
      6.15      -1.44       0.25
      9.48       0.49       0.02
      7.22       0.03       0.19
      7.46       0.26      -0.01
      6.51       0.39       0.48
      5.44      -0.11       0.52
      5.70       0.08       0.60
      7.32       0.25       0.05
      6.85       0.06       0.08
      6.57      -0.67       0.12
      6.15      -0.32       0.23
      5.83      -0.23       0.24
      7.11      -0.17       0.06
      6.72      -0.68      -0.02
      7.53      -0.50      -0.17
      7.07       0.28      -0.29
      6.73       0.53       0.20
      5.86      -0.16       0.12
      5.89       0.19       0.16
      6.89      -0.93      -0.16
      6.75      -0.81       0.50
      6.80      -0.75       0.34
      7.57      -1.10      -0.29
      7.45      -1.10       0.43
      7.55      -0.29       0.00
      7.17      -0.24       0.10
      7.12      -0.55      -0.20
      9.25       1.42      -0.20
      8.86       0.48      -0.57
      8.43       0.51      -0.50
      7.31       0.33      -0.03
      6.83       0.36       0.60
      6.66       0.72       0.20
      7.32       0.38       0.00
      7.29       0.48       0.09
      7.12       0.06       0.25
      7.71      -0.20      -0.01
      7.16      -0.20       0.26
      7.35      -0.20       0.21
      7.49      -0.34      -0.09
      7.20      -0.14       0.48
      8.38       0.12      -0.43
      6.65       0.20      -0.14
      6.22      -0.34       0.87
      6.49       0.09      -0.30
      7.35      -0.49       0.67
      7.69      -0.76       0.54
      7.50      -0.50       0.28
      8.53       0.11      -0.01
      7.80      -0.29      -0.16
      7.48      -0.48      -0.19
      8.15      -0.45      -0.16
      8.37      -0.28      -0.14
      9.32       1.10      -0.05
      9.50       1.20      -0.07
      8.50       0.53       0.09
      7.46      -0.00       0.01
      7.53       0.08       0.18
      7.42       0.12       0.46
      7.65       0.04       0.02
      7.82       0.55       0.09
      7.70       0.77       0.18
      7.49       0.19       0.03
      7.82       0.27       0.28
      7.88       0.36       0.28
      8.14       0.12       0.28
      7.50       0.41       0.10
      8.77       0.02      -0.20
      7.09       0.39       1.32
      6.71       0.08       0.09
      7.19      -0.47       0.26
      7.25      -0.29       0.49
      8.82      -0.20       0.30
      8.70       0.44      -0.01
      9.36       0.12      -0.11
      8.63       0.20      -0.14
      7.66      -0.24      -0.51
      8.80       0.12      -0.66
      7.90       0.57       0.18
      9.11       0.76       0.22
      9.01       1.05       0.09
      8.85       0.19       0.21
      8.34       0.40       0.06
      7.50       0.23       0.41
      8.17      -0.63       0.40
      8.55      -0.03       0.30
      7.45      -0.21       0.25
      7.95       0.48       0.47
      7.10       0.25       0.41
      8.15       0.84       0.51
      7.70       0.87       0.19
      8.34       0.44       0.54
      8.77       0.36       0.22
      8.68       0.12       0.04
      7.73      -0.16       0.40
      7.54      -0.12       0.53
      7.94       0.53       0.14
      7.53      -0.09       0.24
      7.67       0.14       0.20
      8.48       0.39       0.15
      8.55       0.24      -0.14
      9.14       0.47      -0.25
      9.42       0.94      -0.27
      9.49       0.53      -0.58
      8.52       0.36       0.08
      8.45       0.25       0.09
      8.37       0.60      -0.32
      8.39       0.48       0.36
      8.19      -0.22       0.68
      8.46      -0.54      -0.15
      8.03      -0.41       0.16
      8.12      -0.60       0.18
      8.93       0.39       0.08
      8.61       0.61       0.40
      8.66       0.55       1.26
      8.18       0.56       0.68
      8.38       0.38       0.41
      8.38       0.36       0.64
      8.79       0.04       0.00
      8.73       0.23       0.23
      8.48       0.32       0.35
      7.99       0.37       0.35
      8.95       0.56      -0.20
      8.17       0.64       0.51
      8.48       0.84       0.15
      8.27       0.83       0.24
      8.96       0.75       0.05
      9.31       0.44      -0.40
      9.32       0.11      -0.32
      9.03       0.04      -0.40
      8.06       0.08      -0.09
      8.42       0.31       0.27
      8.35      -0.49      -0.52
      8.09       0.03       0.77
      8.62       0.01       0.95
      8.96      -0.48       0.10
      8.74      -0.52       0.17
      9.52      -0.09      -0.10
      9.20       0.02      -0.08
      8.44       0.47       0.57
      8.78       1.06       0.72
      9.02       1.03       0.68
      8.91       0.91       0.43
      9.28       1.07       0.50
      9.04       0.45       0.33
      8.89      -0.01       0.19
      8.79      -0.16       0.15
      9.03       0.00       0.06
      8.70       0.01       0.24
      8.64       0.13       0.31
      8.87      -0.07       0.37
      8.73       0.39       0.27
      9.92       0.57       0.39
      9.56       0.05      -0.48
      9.31       0.23       0.03
      9.30       0.23      -0.19
      8.91       0.11      -0.25
      8.28       0.17       0.23
      8.31      -0.10       0.12
      8.15      -0.65       0.39
      8.16      -0.32       0.93
      8.90      -0.36       0.38
      9.13      -0.38      -0.00
      8.97      -0.02      -0.03
      8.77      -0.06       0.26
      9.19       0.01      -0.02
      8.68       0.43       0.66
      9.31      -0.07       0.27
     10.12       0.12      -0.14
      9.10      -0.40       0.66
      8.77      -0.18       0.56
      9.12      -0.60       0.24
      9.96      -0.76       0.05
      9.81      -0.51       0.02
      8.34      -0.06       0.74
      9.13      -0.08       0.38
      8.51       0.04       0.43
      9.18      -0.07       0.55
      9.55       0.33       0.20
      9.13       0.06      -0.34
      9.19      -0.07      -0.08
      9.17       0.03      -0.12
      9.21      -0.03      -0.21
      8.61       0.31       0.04
      8.10      -0.13       0.37
      8.74      -0.72       0.30
      8.52      -0.17       0.56
      9.19       0.02       0.11
      9.22      -0.13      -0.04
      9.42      -0.60       0.14
      8.98      -0.32      -0.17
      9.48      -0.38      -0.21
      9.67      -0.29       0.21
     10.15      -0.42       0.29
      8.98      -0.71      -0.00
      8.47      -0.97       0.34
      9.24      -0.57       0.15
      9.69      -0.69       0.18
     10.06      -0.74      -0.03
      9.56      -0.82       0.16
      9.49      -0.37       0.53
      8.51      -0.02       0.42
      9.11       0.06       0.68
      9.29       0.28       0.16
      9.56      -0.04       0.13
      9.61      -0.22      -0.33
      9.39      -0.28      -0.18
      9.48       0.10      -0.17
      9.36       0.18      -0.02
      8.31       0.18      -0.09
      8.24       0.08       0.54
      8.36       0.11       0.54
      8.68      -0.07       0.13
      9.25       0.21       0.17
      9.21      -0.00       0.18
      9.56      -0.32       0.22
      9.49      -0.50       0.11
      9.48      -0.71       0.12
      9.53      -1.08      -0.08
      9.93      -0.92       0.26
      9.59      -0.98       0.30
      8.98      -0.97       0.38
      9.34      -1.10      -0.16
      9.43      -1.03      -0.00
      9.38      -0.99      -0.02
      9.54      -0.70       0.15
      8.98      -0.22       0.36
      9.28      -0.79       0.49
      9.48      -0.28       0.39
      9.64      -0.18       0.38
      9.55       0.01       0.05
      9.71      -0.16      -0.01
     10.02      -0.39       0.04
      9.27      -0.25      -0.07
      9.77      -0.38       0.10
      8.99       0.06       0.02
      8.33      -0.32       0.33
      8.65      -0.11       0.55
      9.11       0.36       0.29
      9.49       0.02       0.13
      9.21       0.12       0.22
      9.17       0.29       0.39
      9.42      -0.05       0.29
      9.19      -0.35       0.26
      9.80      -0.64       0.04
      9.64      -0.62       0.32
      9.95      -0.68       0.04
      9.44      -1.06       0.26
      9.53      -0.92       0.09
      9.67      -0.74      -0.28
      9.74      -0.90       0.13
      9.67      -0.94       0.17
      9.59      -0.84       0.27
      9.41      -0.58       0.56
      9.40      -0.50       0.13
      9.81      -0.31       0.21
      9.47      -0.60       0.23
      9.78      -0.82       0.26
      9.57      -0.65       0.07
      9.94      -0.51      -0.39
     10.11      -0.15      -0.26
      9.30      -0.10      -0.09
      9.06       0.01       0.25
      9.09      -0.05       0.58
      9.32       0.08       0.01
      9.56       0.02       0.34
      9.19      -0.09       0.11
      9.40      -0.34       0.21
      9.73      -0.40       0.30
      9.05      -0.41       0.46
      9.82      -0.95       0.13
      9.97      -0.57       0.24
      9.83      -0.61       0.07
      9.78      -0.60       0.27
     10.09      -0.49       0.17
      9.84      -0.37       0.00
      9.52      -0.53      -0.13
      9.64      -0.63       0.18
      9.92      -0.73       0.37
      9.70      -0.42       0.33
      9.84      -0.67       0.31
      9.89      -0.61       0.14
      9.48      -0.85       0.33
      9.56      -0.55       0.04
      9.89      -0.46      -0.14
      9.88      -0.47      -0.21
     10.31      -0.64      -0.39
