# vtk DataFile Version 3.0
Low resolution, disturbed wind of YZ Slice at time = 36 seconds.
ASCII
DATASET STRUCTURED_POINTS
DIMENSIONS     1    26    12
ORIGIN    1504.00     635.00      15.00
SPACING      30.00      30.00      30.00
POINT_DATA             312
VECTORS DisYZ float
      8.72       0.50      -0.20
      5.10      -1.34       0.51
      8.00      -0.19      -0.03
      4.46       1.05       0.54
      5.32       0.72       0.45
      5.17       0.66       0.15
      3.08       0.55       0.61
      6.39       0.37      -0.68
      4.82      -0.09      -0.22
      4.51       0.17       0.27
      4.69       1.02      -0.40
      3.71      -0.27       0.34
      5.41       0.36       0.11
      3.25       0.66       0.84
      4.32      -0.01      -0.53
      4.30       0.62       0.18
      4.99       0.59      -0.02
      5.27      -0.28       0.28
      5.14       0.07       0.26
      5.89      -0.60       0.17
      3.59      -0.45       0.85
      6.72       0.21      -0.50
      5.84      -0.35      -0.38
      5.83      -0.35       0.17
      5.28       0.96       0.59
      7.52      -0.99      -0.12
      8.17      -0.15      -0.62
      7.08      -0.95       0.26
      7.95       0.13       0.20
      6.14       1.00       0.39
      6.33       0.65       0.17
      6.55       0.64      -0.03
      5.82       0.39       1.02
      7.82      -0.42      -0.27
      7.06      -0.01      -0.02
      6.20       0.06      -0.26
      6.64      -0.68       1.26
      7.40       0.56       1.03
      6.75       1.59       0.92
      5.07       0.46      -0.40
      6.00       0.21      -0.08
      6.35      -0.03      -0.32
      6.40       0.16       0.16
      6.73       0.35       0.51
      6.98       0.45      -0.18
      6.23       0.78       0.88
      5.97      -0.21       0.68
      7.29      -0.23       0.01
      9.11       0.38      -0.40
      7.77      -0.68      -0.05
      7.00       0.14      -0.14
      7.27       0.36       0.09
      8.50       0.44      -0.74
      8.24       1.05       0.11
      8.09       1.54       0.49
      7.18       0.80       0.24
      6.93       0.42       0.33
      6.94      -0.20       0.28
      7.29       0.12       0.31
      7.46       0.08      -0.10
      7.37      -0.49      -0.27
      7.17      -0.62       0.14
      7.12       0.06       0.65
      7.25       0.46      -0.71
      6.14       0.53       0.64
      7.23       0.77      -0.36
      8.20      -0.27      -0.26
      8.04      -0.12      -0.70
      6.33       0.72       0.73
      7.35      -0.26       0.49
      7.91      -0.41      -0.40
      6.63       0.05       0.32
      7.05       0.03       0.78
      8.32      -0.73       0.08
      7.75      -0.67       0.04
      7.95      -1.03       0.58
      9.02      -0.62      -0.24
      8.79      -1.02       0.04
      8.34       0.49      -0.43
      8.19       0.09      -0.32
      8.01      -0.00       0.40
      8.15       0.44       1.47
      7.18       0.34       0.06
      7.14       0.71       0.43
      7.60       0.69      -0.19
      7.87       0.46       0.25
      7.46      -0.73       0.71
      8.37      -0.95      -0.13
      7.93      -0.49      -0.10
      7.63      -0.30      -0.20
      7.54      -0.16       0.29
      7.81       1.16       0.39
      8.16       0.85      -0.04
      8.29       0.11      -0.41
      6.31       0.43       0.37
      6.75       0.27       0.44
      7.49      -0.43       0.12
      8.19      -0.15       0.08
      8.47      -0.53       0.41
      8.86      -0.53       0.01
      8.81      -0.29       0.40
      7.39      -0.63       0.39
      8.92      -0.43      -0.38
      8.32      -0.30       0.26
      8.44       0.40       0.86
      8.79       0.38      -0.22
      8.49      -0.35      -0.17
      8.43      -0.46      -0.06
      8.67      -0.06      -0.35
      7.78       0.09       0.51
      7.52      -0.42      -0.14
      8.04      -0.16       0.13
      7.49      -0.22       0.68
      8.09       0.09      -0.79
      8.47      -0.57      -0.42
      8.08      -0.28       0.23
      8.64      -0.05       0.39
      8.69       0.32       0.12
      8.46       0.25      -0.10
      8.48      -0.00       0.00
      8.01       0.07      -0.04
      8.07      -0.10       1.01
      7.85       0.14      -0.10
      8.08      -0.23      -0.07
      8.61       0.01       0.22
      8.84      -0.08      -0.02
      9.96       0.20       0.20
      9.33      -0.14       0.24
      9.03      -0.05      -0.09
      8.87       0.16      -0.04
      8.39       0.07       0.79
      8.44      -0.12       0.56
      8.58      -0.41       0.09
      8.77      -0.43      -0.03
      8.84      -0.48      -0.24
      8.81       0.38       0.18
      8.89       0.73      -0.41
      8.12       0.26       0.29
      9.06       0.24      -0.49
      8.62       0.46      -0.51
      8.67      -0.16      -0.02
      9.19       0.02      -0.25
      9.14      -0.21      -0.09
      8.83       0.27       0.32
      8.90       0.08       0.50
      8.81       0.05      -0.11
      8.44       0.06       0.22
      7.89      -0.71       0.59
      7.96      -0.57       0.59
      8.25      -0.34      -0.05
      9.24       0.17      -0.45
      8.90       0.47      -0.17
      9.26       0.00       0.27
      8.91       0.57       0.20
      8.97       0.20      -0.29
      8.99      -0.20      -0.04
      8.58      -0.32       0.39
      8.75      -0.08       0.34
      8.84       0.36      -0.42
      9.18      -0.12       0.11
      9.67      -0.04      -0.18
      9.07       0.01      -0.28
      8.93      -0.24      -0.18
      8.42      -0.52       0.57
      9.07      -0.28      -0.11
      9.18      -0.48      -0.21
      9.35      -0.76      -0.41
      9.71      -0.27      -0.48
      9.24      -0.32       0.20
      8.66      -0.67       0.55
      8.54      -0.66       0.17
      8.19      -0.09      -0.06
      8.53       0.14       0.66
      7.93      -0.53       0.72
      7.82      -0.70       0.40
      8.20      -0.62      -0.26
      8.81      -0.03      -0.61
      8.54       0.25       0.68
      8.83       0.30       0.26
      9.00       0.34       0.14
      9.11      -0.28      -0.04
      8.94      -0.53       0.09
      8.73      -0.16       0.36
      9.13      -0.34       0.03
      8.75       0.22      -0.22
      9.10      -0.03      -0.32
      9.04      -0.18      -0.38
      9.48      -0.31       0.01
      9.06      -0.59       0.27
      9.40      -0.46      -0.09
      9.91      -0.30      -0.45
      9.69      -0.49      -0.34
      9.77      -0.47       0.06
      9.04      -0.83       0.00
      8.71      -0.92       0.40
      8.98      -0.80       0.34
      8.55      -0.31      -0.22
      8.29      -0.22       0.48
      9.04      -0.31       0.54
      8.79      -0.11       1.08
      7.93      -0.63       0.58
      8.97      -0.41      -0.11
      9.69      -0.33       0.19
      9.71      -0.73      -0.04
      8.89       0.32       0.49
      9.02      -0.33       0.31
      9.38      -0.11      -0.10
      9.85       0.05      -0.48
      8.83      -0.06       0.19
      8.61       0.25       0.14
      9.11      -0.05       0.06
      9.10      -0.06       0.46
      9.17      -0.95       0.23
      9.35      -0.41       0.32
      9.27      -0.25       0.04
      9.59      -0.13      -0.20
      9.90      -0.54      -0.51
      9.82      -0.46      -0.26
      9.54      -0.37       0.42
      9.06      -0.87       0.41
      8.77      -1.06       0.81
      8.91      -1.12       0.38
      8.93      -0.99       0.27
      8.79      -0.81       0.35
      8.76      -0.80       0.53
      8.63      -0.71       1.19
      8.43      -0.46       0.89
      9.87      -0.74      -0.39
      9.89      -0.72      -0.68
      9.17      -0.43      -0.06
      8.70       0.07       0.61
      9.28       0.25      -0.10
      9.56      -0.07       0.03
     10.56      -0.16      -0.40
      8.83      -0.61      -0.05
      9.46      -0.56       0.09
      9.42      -0.91       0.24
      9.36      -0.35       0.53
      9.10      -0.54       0.29
      9.56      -0.97      -0.11
      9.36      -0.59       0.01
      9.91      -0.60      -0.11
      9.82      -0.46      -0.29
      9.18      -1.30       0.01
      9.11      -1.28       0.46
     10.12      -1.09       0.34
     10.65      -1.65      -0.01
     10.06      -0.97       0.32
     10.11      -0.88       0.31
      9.36      -0.57       0.29
      9.31      -0.45       0.47
      9.03      -0.30       0.47
      9.19      -0.26      -0.21
     10.28      -0.25      -0.90
     10.46      -0.26      -0.50
      8.88      -0.22       0.08
      9.11      -0.29       0.17
      9.63      -0.20      -0.28
     10.33      -0.82      -0.03
     10.50      -0.64      -0.26
      9.02      -0.21       0.37
      9.61      -0.89       0.11
      9.50      -0.46      -0.56
      9.31      -0.44       0.26
      8.91      -0.58       0.31
      9.30      -0.62      -0.11
      9.76      -0.82      -0.08
     10.00      -0.97      -0.30
      9.80      -0.89      -0.06
      9.75      -1.14      -0.02
      9.42      -1.44       0.25
      9.51      -0.97       0.36
     10.00      -1.17       0.08
      9.70      -1.05      -0.09
      9.82      -0.85       0.14
      9.48      -0.76       0.20
      9.70      -0.47      -0.00
      9.75      -0.12       0.24
      9.68      -0.48       0.00
      8.56      -0.23       0.27
      9.32      -0.26      -0.14
      8.67      -0.08       0.33
      9.61      -0.18      -0.04
      9.81      -0.50       0.30
     10.21      -0.69      -0.38
      9.88      -1.02      -0.32
      9.50      -0.44       0.59
      9.19      -0.46       0.34
      9.32      -0.46      -0.17
      9.61      -0.59       0.17
      9.13      -0.65       0.55
      9.14      -0.57       0.22
      9.19      -0.39       0.07
      9.92      -0.84       0.11
     10.03      -0.96       0.06
      9.83      -0.78      -0.03
      9.63      -0.98       0.17
      9.71      -1.03       0.18
      9.82      -0.79      -0.07
      9.71      -0.97      -0.22
      9.51      -0.75       0.03
      9.86      -0.77       0.05
     10.12      -0.67      -0.27
      9.67      -0.79      -0.08
      9.77      -0.73       0.17
      9.43      -0.92       0.54
      9.64      -0.45       0.44
      9.68      -0.79       0.06
      9.93      -0.90       0.11
      9.70      -0.88       0.27
     10.66      -1.11       0.00
     10.34      -1.42      -0.08
