# vtk DataFile Version 3.0
Low resolution, disturbed wind of XY Slice at time = 48 seconds.
ASCII
DATASET STRUCTURED_POINTS
DIMENSIONS    47    26     1
ORIGIN     635.00     635.00      85.00
SPACING      30.00      30.00      30.00
POINT_DATA            1222
VECTORS DisXY float
      7.86       0.13      -0.48
      8.02      -0.22       0.06
      8.46       0.40       0.01
      8.71       0.14       0.71
      8.56      -0.12       0.61
      8.26      -0.27       0.09
      8.33      -0.38      -0.20
      8.55      -0.72       0.35
      8.93       0.25      -0.10
      8.86       0.38       0.32
      9.00       0.63      -0.15
      8.43       0.10       0.60
      8.51       0.78       0.78
      8.95       0.46      -0.06
      8.58       0.21       0.25
      8.05       0.17       0.36
      7.61       0.41       1.06
      8.25       0.87       0.51
      8.42       0.26       0.52
      8.60       0.09       0.11
      8.48       0.06       0.14
      8.87      -0.09      -0.22
      8.71       0.20      -0.19
      8.52       0.50       0.23
      9.22       0.37       0.07
      8.68      -0.12       0.17
      9.09      -0.02      -0.25
      8.45       0.76       0.55
      9.20       1.04      -0.09
      8.45       0.94      -0.11
      7.56       0.48       0.48
      8.11       0.80       0.54
      8.28       0.43      -0.35
      8.67       0.37      -0.43
      8.27       0.26       0.07
      8.50      -0.19       0.03
      8.59      -0.10      -0.42
      8.18       0.55       0.77
      7.72      -0.17       0.13
      7.78       0.13       0.05
      7.24      -0.14       0.34
      6.99       0.52       0.38
      6.83      -0.71       0.46
      6.88      -0.14       0.37
      6.82       0.02      -0.05
      6.99      -0.37      -0.15
      6.53      -0.03       0.39
      8.06      -0.15      -0.24
      8.17       0.09       0.14
      7.37      -0.29       0.14
      7.52      -0.66       0.20
      7.65      -0.38       0.13
      7.46      -0.21       0.22
      7.69      -0.78      -0.15
      7.76      -1.15      -0.20
      8.38      -0.11      -0.55
      8.12       0.44       0.18
      7.57       0.63       0.88
      7.47       0.16       0.83
      7.39       0.15       0.47
      7.47       0.44       0.27
      7.86       0.51       0.56
      8.15       0.43       0.50
      8.03       0.61       0.29
      7.92       0.40       0.23
      7.67       0.27      -0.29
      8.01       0.03       0.14
      7.93      -0.02      -0.48
      7.64      -0.38       0.34
      7.40       0.40       0.58
      7.63       0.59       0.20
      8.29      -0.09      -0.16
      8.89       0.12      -0.09
      8.47       0.12      -0.00
      8.67       0.16       0.22
      8.77       1.16      -0.16
      8.59       1.27      -0.12
      8.79       0.71       0.34
      8.78       0.59      -0.34
      8.13       0.41       0.23
      8.33       0.35      -0.05
      8.38       0.28       0.57
      8.06      -0.44      -0.07
      8.39      -0.38      -0.23
      7.89       1.28       0.47
      8.43       0.12       0.15
      8.78       0.43       0.11
      7.39       0.59       0.07
      7.95       0.59      -0.08
      7.82      -0.36       0.15
      7.64      -0.12      -0.15
      7.44      -0.26       0.01
      7.32      -0.38      -0.17
      7.73      -0.26      -0.08
      7.48      -0.09       0.13
      7.24      -0.21       0.31
      7.92      -0.39       0.00
      7.86      -1.01      -0.50
      7.95      -0.69      -0.16
      8.11      -0.12      -0.39
      7.88      -0.59      -0.45
      7.92      -0.84       0.30
      7.63      -0.09       0.30
      7.80       1.17      -0.23
      8.18       0.74       0.55
      7.68       0.00       0.55
      7.33       0.23      -0.02
      7.23       0.18      -0.07
      7.49       0.62       0.27
      7.48       0.28       0.30
      7.56       0.24       0.42
      7.59       0.23       0.42
      7.49      -0.08       0.33
      7.61      -0.05      -0.06
      8.10       0.20      -0.02
      7.85       0.39       0.23
      7.95      -0.03       0.37
      8.79       0.31      -0.18
      8.45       0.00       0.17
      7.99      -0.12       0.04
      8.21       0.30       0.50
      8.52       0.48      -0.03
      8.65       0.54      -0.56
      8.70       0.92      -0.22
      8.95       0.90      -0.22
      8.58       0.30      -0.43
      8.07       1.13       0.50
      8.41       0.94       0.45
      8.86       0.36       0.53
      7.96      -0.45      -0.01
      7.76      -0.31       0.29
      7.96       0.66       0.22
      7.83       0.41       0.02
      7.83       0.30       0.66
      8.41       0.86      -0.17
      7.73       0.31       0.21
      7.20      -0.06       0.27
      7.45      -0.35       0.20
      7.44      -0.69       0.58
      7.37      -0.46       0.35
      7.40      -0.03       0.02
      6.72       0.27       0.53
      6.65      -0.42       0.58
      7.00      -0.78       0.42
      7.21      -0.33      -0.02
      7.24      -0.81      -0.13
      6.93      -0.76      -0.31
      6.73      -0.63       0.26
      6.86      -0.24       0.67
      7.08      -0.28       0.85
      7.11      -0.49       0.67
      7.05       0.26       0.21
      7.19       0.11       0.00
      7.17       0.33       0.61
      7.13      -0.03       0.57
      7.28       0.28       0.33
      7.53       0.09       0.58
      7.38       0.32       0.01
      7.65       0.20      -0.76
      7.74      -0.27      -0.19
      7.86       0.23       0.06
      8.08       0.60      -0.28
      7.37       0.04      -0.26
      7.35      -0.31       0.22
      7.43      -0.05       0.16
      7.30      -0.25       0.57
      7.91      -0.19       0.47
      7.51       0.00       0.34
      7.04       0.58      -0.16
      7.53       0.00      -0.30
      7.56       0.24       0.38
      8.42       0.61       0.56
      8.43       0.70       0.59
      7.69       0.55       1.16
      7.82       0.39       0.41
      7.84       0.33       0.20
      7.74       0.67      -0.29
      7.65      -0.16      -0.11
      7.95       0.64      -0.41
      7.55       0.62       0.32
      7.18       0.07       0.08
      7.22       0.33       0.48
      7.52       0.67       0.13
      7.64       0.25       0.15
      7.23       0.03       0.32
      7.53      -0.55       0.55
      7.61      -0.23       0.35
      8.03      -0.21      -0.26
      6.94      -0.19       0.22
      6.97      -1.45      -0.13
      7.80      -1.05      -0.25
      7.53      -0.53       0.81
      8.03      -0.41      -0.30
      8.93       0.11      -0.48
      7.53       0.28       0.31
      6.09      -0.11       0.45
      6.01      -0.14       0.47
      6.24       0.04       0.30
      5.76       0.59       0.73
      6.37       0.41       0.64
      6.82      -0.13      -0.12
      6.72      -0.28       0.04
      6.38      -0.08       0.37
      6.96       0.15       0.16
      6.77      -0.07       0.40
      7.63       0.59       0.41
      6.97       0.16       0.07
      6.43       0.12       0.71
      6.25      -0.02       0.37
      6.62       0.44       0.62
      6.74      -0.04       1.07
      6.44      -0.56       0.10
      6.64      -0.38       0.39
      6.84       0.07       0.19
      6.69      -0.14       0.46
      6.96       0.16       0.37
      7.79       0.13      -0.40
      7.10       0.22       0.39
      6.95       0.57       0.39
      7.07       0.35       0.18
      7.24       0.51       0.29
      7.43       1.00      -0.10
      7.02       0.19       0.16
      7.66       0.28       0.17
      7.42       0.33       0.02
      7.48       0.68      -0.20
      7.83       0.62       0.31
      7.66       0.33       0.38
      7.72       0.02       0.46
      7.67       0.06       0.53
      7.79       0.12      -0.01
      8.15      -0.44      -0.13
      7.91       0.14       0.19
      6.82      -0.18       0.81
      6.78      -0.12       0.18
      6.91      -0.43       0.78
      6.81      -0.59       0.45
      7.43      -1.12      -0.22
      7.05      -0.95       0.19
      6.90      -0.34       0.62
      7.04      -0.14       0.24
      6.90       0.13       0.32
      7.17       0.29       0.10
      7.33       0.58       0.07
      7.16       0.61      -0.45
      6.86       0.31       0.11
      6.97       0.09       0.24
      6.92      -0.01       0.08
      7.48       0.07      -0.17
      7.43       0.15      -0.16
      7.54       0.08      -0.09
      7.81      -0.24      -0.45
      8.04      -0.31      -0.51
      7.64       0.03      -0.71
      7.83       0.46      -0.41
      7.04       0.45       0.19
      6.88       0.24      -0.00
      6.90       0.02       0.29
      6.38      -0.68       0.42
      6.85      -0.10       0.86
      7.03      -0.13       0.49
      6.89       0.21       0.21
      6.86       0.16       0.39
      6.77       0.15       0.69
      6.27       0.11       0.82
      6.21      -0.01       0.92
      6.47       0.11       0.50
      6.85       0.21       0.33
      7.44       0.62       0.34
      7.52       0.17      -0.08
      7.85       0.01      -0.36
      7.80      -0.13      -0.05
      7.70       0.45      -0.06
      7.74       0.82       0.05
      7.65       0.39      -0.20
      7.82       0.03      -0.19
      7.94      -0.05       0.25
      7.38       0.07      -0.34
      7.15       0.04      -0.05
      7.21       0.08       0.27
      7.51      -0.21       0.07
      7.67      -0.53      -0.02
      7.56      -0.75       0.08
      7.76      -0.65       0.42
      7.31      -0.53      -0.18
      6.99      -0.57       0.28
      6.62      -0.53       0.43
      6.55      -0.01       0.48
      7.00       0.09       0.35
      7.24       0.12       0.33
      7.28       0.35      -0.12
      7.36       0.52      -0.22
      7.59       0.62      -0.28
      7.50       0.56      -0.00
      6.94      -0.15       0.46
      7.03      -0.28       0.16
      7.47      -0.50       0.27
      7.49      -0.08       0.55
      8.03      -0.41       0.41
      8.26      -0.34      -0.51
      8.15       0.07      -0.75
      7.52       0.93       0.03
      7.34       0.25      -0.08
      7.77      -0.02      -0.30
      8.26      -0.20      -0.18
      8.43      -0.28      -0.28
      7.80      -0.24       0.02
      8.08      -0.03       0.07
      7.31       0.24       0.30
      7.29       0.59      -0.29
      7.17       0.27      -0.00
      7.16       0.31       0.36
      6.81       0.12       0.54
      6.49       0.42       0.95
      7.55       0.18       0.31
      7.47       0.32      -0.25
      7.83       0.04      -0.54
      7.67       0.02      -0.61
      8.19       0.17      -0.55
      7.66       0.30      -0.16
      7.80       0.62      -0.25
      8.09       0.39      -0.44
      7.71       0.71       0.05
      7.42       0.44       0.23
      7.33       0.00       0.06
      7.36       0.67      -0.19
      7.37       0.02      -0.11
      7.07      -0.09       0.12
      7.29      -0.41       0.23
      7.70      -0.82       0.02
      8.39      -0.39      -0.49
      8.15      -0.07      -0.22
      8.10      -0.43       0.09
      8.54      -0.73       0.28
      7.97      -0.66      -0.07
      7.55       0.09       0.00
      7.50       0.35       0.30
      7.43       0.54      -0.16
      7.80       0.21      -0.06
      7.56       0.59      -0.01
      7.57       0.76      -0.10
      7.56      -0.00       0.80
      8.04      -0.81      -0.05
      8.29      -0.73      -0.15
      8.09      -0.38       0.05
      7.85      -0.04      -0.43
      8.17       0.08      -0.27
      7.85       0.23      -0.20
      8.20       0.28      -0.58
      8.69       0.18      -0.34
      8.63      -0.10      -0.32
      8.22      -0.04      -0.53
      7.75      -0.04       0.42
      7.28      -0.12       0.27
      7.33      -0.28       0.30
      7.58       0.35       0.72
      7.81       0.67       0.10
      7.76       0.55      -0.41
      7.36      -0.20       0.10
      7.56      -0.40       0.32
      7.57       0.11       0.18
      7.63       0.17       0.12
      7.82       0.27      -0.04
      7.60       0.42      -0.06
      7.25       0.12       0.12
      7.24      -0.22      -0.28
      7.60      -0.11      -0.34
      7.64       0.49      -0.26
      7.72       0.45       0.13
      7.62       1.03      -0.21
      7.91       0.14      -0.15
      7.86       0.41      -0.24
      8.20      -0.14      -0.37
      8.16       0.12      -0.17
      7.84      -0.74      -0.16
      7.96      -0.18      -0.43
      8.05      -0.34      -0.51
      8.28      -0.35      -0.36
      8.40       0.28       0.14
      8.07      -0.32       0.38
      8.31      -0.71       0.60
      8.59      -0.95       0.04
      8.07      -0.30       0.20
      7.65       0.55      -0.08
      7.75       0.64       0.44
      7.59       0.14      -0.56
      7.29       0.83      -0.16
      7.29       0.53       0.10
      8.28      -0.33      -0.19
      8.15      -0.58       0.14
      7.36      -0.57      -0.00
      7.63      -0.10       0.24
      7.78      -0.16       0.46
      7.94      -0.03       0.01
      8.39       0.09      -0.67
      9.13       0.02      -0.57
      8.62      -0.12      -0.23
      8.15       0.15       0.02
      8.18       0.15       0.04
      7.81       0.41      -0.03
      7.92       0.24      -0.21
      7.30       0.12       0.28
      7.05      -0.42       0.69
      7.57       0.34       0.38
      7.66       0.22       0.14
      7.46      -0.10       0.25
      6.94      -0.54       0.13
      6.99      -0.46       0.25
      7.53      -0.52      -0.19
      7.92      -0.17      -0.12
      7.70       0.11      -0.27
      7.54       0.24      -0.10
      7.28      -0.16      -0.30
      7.45       0.03      -0.38
      7.51       0.55       0.05
      7.72       0.33       0.11
      7.94       0.22      -0.16
      7.64       0.08      -0.13
      7.85      -0.32      -0.09
      7.95      -0.07      -0.15
      8.14      -0.11       0.06
      7.47      -0.76       0.47
      7.87      -0.13       0.29
      7.93      -0.27      -0.20
      7.95      -0.73      -0.40
      8.04      -0.81      -0.79
      8.10      -0.51      -1.07
      8.64      -0.72      -1.22
      9.12      -0.62      -0.92
      8.91      -0.51      -0.32
      8.80       0.18      -0.67
      9.06       0.12      -0.48
      8.36       0.60      -0.54
      8.17       0.56      -0.75
      8.03       0.12      -0.37
      8.08      -0.13       0.22
      8.33       0.10      -0.18
      7.78      -0.21       0.43
      7.52       0.19       0.04
      7.61      -0.10      -0.06
      8.16      -0.26      -0.33
      8.09      -0.39      -0.00
      8.13       0.36       0.03
      7.97      -0.13       0.25
      8.03       0.29      -0.42
      7.40       0.55      -0.01
      7.38       0.69      -0.00
      7.69       0.37      -0.08
      7.37       0.19       0.58
      7.25       0.08       0.45
      7.59       0.01      -0.02
      7.56      -0.58       0.18
      7.55      -0.22      -0.00
      7.85      -0.30       0.17
      7.76      -0.80      -0.13
      7.62      -0.61       0.08
      7.94      -0.17      -0.44
      8.02       0.45      -0.10
      7.46       0.17       0.02
      7.66       0.28      -0.73
      7.33      -0.02      -0.22
      6.81       0.32       0.21
      6.84      -0.62      -0.19
      7.32      -0.09      -0.02
      7.73       0.29      -0.62
      7.54      -0.00      -0.41
      7.80      -0.30       0.09
      7.57      -0.00       0.10
      6.71      -0.82       0.72
      7.04       0.25       0.33
      7.77      -0.65      -0.55
      7.39      -1.22      -0.00
      7.11      -0.71       0.38
      7.45      -0.79       0.24
      7.36      -0.93       0.38
      7.29      -0.72      -0.21
      7.92      -0.43      -0.36
      8.00       0.80       0.39
      8.00       0.41      -0.19
      7.93       0.25      -0.46
      8.18       0.32      -0.22
      8.20       0.20      -0.62
      5.75       0.49      -0.02
      4.19       0.44       0.07
      4.28      -0.10       0.05
      4.82       0.32       0.12
      4.88      -0.15      -0.05
      4.74      -0.26       0.89
      5.12       0.10       0.22
      4.82       0.09       0.27
      5.68      -0.08      -0.04
      5.93       0.61       0.41
      5.97       0.45       0.41
      6.04       0.30       0.21
      7.46       0.68       0.09
      8.10       0.33       0.13
      7.52      -0.04       0.66
      7.54       0.06       0.21
      7.84       0.04       0.34
      7.58       0.24       0.04
      7.30      -0.56       0.36
      7.53      -0.25      -0.38
      7.30       0.15       0.40
      7.72       0.05       0.35
      6.74       0.20       0.34
      6.91       0.26      -0.38
      6.91       0.36      -0.22
      7.32       0.44      -0.23
      7.10       0.20      -0.06
      6.55      -0.02       0.66
      6.41      -0.63       0.05
      6.50      -0.32      -0.25
      6.87      -0.17      -0.22
      7.27       0.55       0.19
      7.20       0.10      -0.13
      6.75       0.05       0.26
      6.78       0.03       0.71
      7.52      -0.29      -0.18
      6.65      -0.30       0.46
      7.10      -0.28       0.17
      6.98      -0.84       0.14
      6.59      -1.06       0.42
      6.42      -0.54       0.95
      7.13       0.22       1.27
      7.35       0.59       0.13
      7.07       0.23      -0.33
      7.32       0.08      -0.48
      7.74       0.22      -0.42
      7.43      -0.13       0.03
      4.80      -0.34       0.03
      4.30       0.21       0.32
      3.39       0.34       0.46
      3.64       0.05       0.37
      3.24      -0.42       0.52
      2.77      -0.25       0.87
      3.22      -0.17       0.79
      2.72       0.63       0.95
      3.05       0.83       0.72
      3.47       0.53       0.50
      3.91       0.77       0.62
      4.16       0.29       0.53
      7.26       0.29       0.58
      7.63       0.15       0.43
      7.68       0.05       0.48
      7.54      -0.10       0.24
      7.96      -0.26       0.05
      7.71      -0.33       0.14
      7.60      -0.14      -0.04
      7.84      -0.52      -0.45
      7.59       0.42      -0.18
      7.47       0.31       0.62
      7.08       0.09       0.43
      7.00      -0.11       0.35
      6.78      -0.05       0.00
      7.12       0.14      -0.16
      7.09       0.23       0.15
      7.10       0.25      -0.00
      6.72       0.08       0.48
      6.79      -0.70       0.38
      6.55      -0.37      -0.36
      6.85       0.08      -0.22
      7.22      -0.21      -0.01
      6.78       0.29       0.35
      6.89       0.16      -0.03
      7.00      -0.48      -0.20
      7.26      -0.32       0.17
      6.69      -0.12       0.37
      6.50      -0.85       0.49
      7.05      -0.26       0.47
      7.36       0.31       0.27
      6.87      -0.50       0.52
      6.86       0.07       0.24
      6.96       0.36       0.02
      6.97       0.07       0.26
      6.49       0.16       0.23
      6.66       0.18       0.04
      4.38       0.06       0.40
      3.65       0.04       1.04
      3.82      -0.22       0.76
      3.67      -0.27       0.55
      3.99      -0.55      -0.26
      4.14      -0.27       0.61
      4.04      -0.44       0.68
      3.64       0.10       0.93
      4.22       0.02       0.51
      3.94       0.11       0.46
      4.26       0.09       0.21
      4.37       0.13       0.55
      7.55       0.35       0.68
      7.61      -0.05       0.52
      7.35       0.05       0.48
      7.54      -0.48       0.45
      7.63      -0.23       0.14
      8.37      -0.02       0.29
      7.72       0.13       0.04
      7.15       0.10      -0.32
      6.71       0.13       0.29
      6.97       0.25       0.24
      7.11      -0.21       0.51
      7.28      -0.23       0.08
      7.54       0.04       0.34
      7.58       0.13      -0.25
      7.57       0.48       0.07
      6.88       0.13       0.39
      6.79       0.48       0.56
      6.56      -0.89      -0.28
      6.96      -1.40      -0.08
      7.92      -0.66      -0.89
      7.51       0.31      -0.35
      6.77       0.24       0.28
      7.46      -0.01      -0.18
      6.68       0.13       0.25
      6.78      -0.58       0.17
      6.53      -0.38      -0.01
      6.85      -0.63      -0.20
      7.38      -0.64      -0.06
      6.99      -0.50      -0.02
      7.37      -0.29      -0.03
      7.40       0.05       0.36
      6.75      -0.15       0.35
      6.49       0.07       0.12
      6.37       0.39       0.25
      6.57      -0.36       0.83
      4.30      -0.03       1.00
      3.21      -0.65       0.37
      3.30      -0.78       0.29
      3.61      -0.78      -0.07
      3.38      -0.49       0.04
      3.69      -0.55      -0.12
      3.85      -0.31       0.47
      3.78      -0.01       0.51
      3.91       0.10       0.38
      4.17       0.10       0.67
      4.35       0.21       0.39
      4.63      -0.03       0.02
      7.93       0.36      -0.46
      7.61       0.47      -0.09
      7.80       0.30      -0.24
      6.90       0.05       0.33
      7.24      -0.37       0.91
      7.18      -0.66       0.71
      6.92      -0.01      -0.36
      6.69       0.75      -0.04
      6.95       0.63       0.14
      7.54      -0.09       0.05
      7.42      -0.48      -0.31
      6.92      -0.48       0.08
      7.31       0.38       0.17
      7.57       0.09       0.36
      7.60       0.63       0.20
      7.47       0.77       0.09
      8.11       0.28      -0.51
      7.93      -0.47      -0.53
      6.99      -0.64      -0.00
      6.65      -1.06      -0.10
      6.22      -0.25       0.63
      6.87       0.96       0.69
      6.71       0.34       0.42
      8.13      -0.37      -0.45
      7.51       0.07       0.50
      6.88      -0.61       0.11
      6.54      -0.46       0.47
      6.46      -0.85       0.58
      5.90      -0.53      -0.04
      5.85      -0.51       0.48
      6.33      -0.57       0.30
      6.43      -0.29       0.23
      6.88      -0.39       0.30
      6.84       0.32       0.09
      6.79      -0.31       0.18
      3.79       0.05       0.01
      2.96      -0.38      -0.09
      3.22      -0.45       0.29
      3.87      -0.96       0.17
      4.57      -0.20       0.37
      4.74      -0.15       0.34
      4.77      -0.13       0.30
      5.01      -0.13       0.55
      5.04      -0.35       0.70
      5.59       0.06       0.13
      5.53       0.10       0.23
      5.26       0.05      -0.03
      7.59      -0.01      -0.28
      7.59      -0.42      -0.16
      8.19      -0.17      -0.28
      8.79       0.43      -0.11
      8.04       0.06       0.17
      7.93       0.08       0.17
      7.35      -0.05      -0.04
      7.60      -0.17      -0.18
      8.15       0.44      -0.17
      7.76       0.18      -0.41
      8.21      -0.14      -0.46
      6.86       0.14       0.53
      6.80       0.07       0.44
      6.81       0.52       0.40
      6.90      -0.03       0.43
      7.53       0.41       0.14
      8.07      -0.20      -0.21
      7.74      -0.08      -0.30
      7.41       0.27       0.06
      7.55       0.41      -0.04
      7.60      -0.04      -0.85
      7.48       0.05       0.53
      7.24       0.20       0.16
      7.30      -0.04      -0.35
      7.21       0.27       0.08
      7.25       0.26      -0.19
      6.96       0.13      -0.47
      6.77      -0.80       0.52
      7.31      -0.51       0.56
      7.60      -0.73       0.24
      7.46      -0.87       0.30
      8.21      -1.14      -0.13
      7.32      -0.84       0.45
      7.44      -0.37       0.41
      7.06      -0.54       0.05
      6.76       0.37      -0.29
      6.82       0.21      -0.23
      7.34       0.01      -0.01
      7.28      -0.50      -0.30
      7.32      -0.15      -0.18
      7.27      -0.16       0.16
      7.13      -0.31       0.33
      7.22      -0.62       0.17
      7.32      -1.05       0.20
      7.08       0.00      -0.42
      6.97      -0.17      -0.74
      6.80      -0.28      -0.29
      7.94      -0.17      -0.84
      7.07      -0.22      -0.32
      6.74      -0.24      -0.25
      7.28       0.20      -0.28
      7.02       0.22       0.49
      7.28      -0.08       0.06
      7.85      -0.15       0.02
      8.10       0.11      -0.40
      7.71       0.33      -0.52
      7.55      -0.20      -0.17
      7.82      -0.87      -1.12
      7.75       0.57      -0.58
      6.51       0.55       0.53
      7.12      -0.89       0.07
      7.11      -0.24       0.31
      7.37      -0.78       0.14
      7.96      -0.54       0.32
      7.70      -0.43       0.36
      7.93       0.03      -0.64
      8.03       0.73      -0.76
      7.83       0.48      -0.10
      6.60       0.69       0.15
      7.35       0.35       0.47
      7.84       0.18      -0.23
      7.57       0.17      -0.15
      7.35       0.10      -0.20
      7.42       0.27      -0.67
      7.72      -0.08      -0.74
      8.06      -0.82       0.41
      8.06      -0.37      -0.18
      8.17      -0.64       0.10
      8.39      -0.98      -0.15
      7.55      -0.77       0.69
      7.23      -0.09       0.63
      6.95       0.17      -0.61
      7.21       0.69      -0.77
      7.38       0.22      -1.22
      7.66      -0.34      -1.05
      7.68       0.27      -0.56
      7.00      -0.50       0.19
      7.50      -0.26       0.23
      7.56      -1.01      -0.01
      8.01      -1.01      -0.07
      7.91      -0.56       0.48
      7.30      -0.54       0.04
      7.09      -0.63      -0.03
      7.76      -0.21      -0.36
      7.08      -0.07      -0.04
      6.55      -0.58      -0.41
      6.83       0.13       0.30
      6.71      -0.06       0.31
      6.97       0.35       0.61
      6.52      -0.39       0.27
      6.85      -0.19      -0.17
      6.62       0.01       0.52
      6.63       0.94       0.53
      7.23      -0.65       0.11
      7.33      -0.01       0.49
      7.51       0.55       0.13
      8.88       0.16       0.53
      7.23      -0.30      -0.10
      7.01      -0.30      -0.10
      7.38      -0.15      -0.38
      7.73      -1.31       0.09
      7.14      -0.32       0.38
      6.53      -0.02       0.37
      6.80       0.35       0.20
      7.03       0.98      -0.07
      7.15       0.70       0.34
      7.88       0.19      -0.20
      7.74       0.64      -0.03
      8.19       0.47      -0.58
      7.68      -0.13      -0.52
      7.57      -0.45      -0.41
      7.89       0.09      -0.18
      8.19       0.12      -0.30
      8.23       0.04      -0.18
      8.87      -0.47      -0.13
      8.56      -0.25      -0.64
      8.02       0.44      -0.18
      8.12      -0.23       0.35
      8.37      -0.67       0.36
      7.16       0.54      -0.20
      7.92      -0.55      -0.13
      7.87      -0.17      -0.39
      8.18       0.30      -0.79
      8.15       0.34      -0.61
      8.83      -0.20      -0.64
      8.46      -0.49      -0.94
      8.09      -0.07      -0.70
      7.99      -0.57       0.19
      8.09      -0.65       0.31
      8.11      -0.84       0.26
      7.66      -0.48      -0.15
      7.67      -0.09      -0.45
      6.79       0.19       0.35
      6.94       0.12       0.17
      6.69       0.01       0.31
      6.85      -0.04       0.76
      7.70      -0.89       0.23
      7.30      -0.31       0.52
      7.33       0.34      -0.12
      7.57       0.25       0.17
      7.70      -0.76      -0.18
      7.62      -0.66      -0.07
      7.88      -1.02       0.07
      8.11      -0.75      -0.44
      8.79      -0.37      -0.25
      7.83       0.47      -0.09
      7.25       0.01      -0.24
      7.57      -0.76       0.41
      6.95       0.03       0.65
      6.85      -0.67       0.55
      6.65      -0.42       0.69
      6.88      -0.22       0.18
      7.84       0.02      -0.22
      7.34      -0.24       0.11
      7.93       0.72       0.33
      7.81       0.66      -0.03
      7.79      -0.09      -0.72
      7.86      -0.48      -0.52
      8.46      -0.20      -0.35
      8.22      -0.49      -0.09
      8.41      -0.40       0.06
      8.66      -0.47       0.36
      7.84       0.13      -0.17
      8.07      -0.32       0.20
      8.58      -0.28       0.05
      7.94      -0.41       0.58
      8.05      -0.42       0.01
      7.80      -0.69      -0.23
      7.17      -0.67       0.35
      7.68      -0.00      -0.64
      7.26      -0.36      -0.18
      7.41      -0.37      -0.00
      7.86      -0.86      -0.23
      9.00       0.13      -1.08
      9.10      -0.13       0.06
      8.39      -0.33       0.20
      7.49      -0.40      -0.16
      7.54       0.05      -0.06
      6.84       0.09      -0.05
      7.28       0.14      -0.23
      7.18       0.48       0.41
      7.04      -0.46       0.85
      7.56      -1.03       0.15
      7.59      -1.35       0.18
      7.39      -0.29       0.32
      7.85      -0.09       0.32
      7.94      -0.36      -0.38
      7.69      -0.53       0.12
      7.75      -0.72       0.01
      7.95      -0.87      -0.09
      7.75      -0.55       0.37
      8.00      -0.27      -0.73
      8.18       0.17      -0.88
      8.33       0.10      -0.72
      8.61       0.11      -0.49
      8.17       0.08       0.54
      7.75      -0.33       0.40
      7.30      -0.51       0.54
      7.26      -0.22      -0.20
      7.52       0.01       0.15
      7.08       0.34       0.24
      7.40      -0.07       0.69
      8.23       0.50       0.12
      8.54      -0.03      -0.49
      8.48       0.01      -1.01
      8.55       0.12      -0.66
      8.40      -0.46      -0.56
      8.61      -0.53      -0.35