# vtk DataFile Version 3.0
Low resolution, disturbed wind of YZ Slice at time = 24 seconds.
ASCII
DATASET STRUCTURED_POINTS
DIMENSIONS     1    26    12
ORIGIN    1504.00     635.00      15.00
SPACING      30.00      30.00      30.00
POINT_DATA             312
VECTORS DisYZ float
      4.93       0.58       0.33
      5.05       1.05       0.65
      6.44       0.12       0.14
      5.58       1.55      -0.49
      5.11       0.57       0.39
      6.05      -0.11      -0.86
      3.43       0.49       1.02
      6.44       0.61      -0.78
      4.32       1.01      -0.37
      4.22       0.63       0.26
      4.95       0.22      -0.16
      3.29       0.65      -0.04
      3.82      -0.41      -0.25
      6.78      -0.02      -0.93
      4.19      -0.84       1.10
      4.90       0.27      -0.24
      3.96      -0.02       0.97
      4.91       0.09       0.42
      5.45       0.77       0.12
      5.72       0.04       0.02
      4.05       0.28       0.23
      5.44      -0.05       0.26
      6.10      -0.71       0.19
      5.13      -0.49       0.20
      6.42      -0.51       0.22
      6.73      -1.00      -0.56
      6.62      -0.24       0.22
      7.21       1.53       0.81
      6.61       0.14      -0.22
      6.10       0.46       0.20
      7.10       0.95      -0.01
      7.54      -0.04      -0.58
      7.44       0.15      -0.54
      6.78      -0.55      -0.37
      6.23      -0.07       0.26
      4.75       1.18       0.51
      6.17       0.77      -0.18
      7.35       1.01      -0.38
      5.81       0.28       0.18
      6.62      -0.41       0.06
      5.57       0.35       0.35
      6.09       0.73       0.82
      7.03       1.06      -0.92
      8.29      -0.36      -0.09
      7.13       0.17       0.11
      7.05      -0.19       0.11
      6.99      -0.93      -0.01
      7.12      -0.45      -0.00
      7.22       0.46       0.03
      7.62       0.22       0.42
      6.98       0.14      -0.52
      7.83       0.34      -0.78
      8.53      -0.43       0.28
      8.37      -0.34       0.43
      7.88      -0.05      -0.47
      7.39       0.45      -0.12
      7.11      -0.16       0.16
      7.46      -0.15      -0.02
      8.03      -0.43      -0.69
      7.04      -0.15       0.03
      7.80       0.21      -0.39
      7.24       0.53      -0.20
      7.41       0.81       0.00
      6.98       0.29      -0.06
      7.24      -0.03      -0.19
      6.15      -0.10       0.36
      7.31      -0.41      -0.39
      7.31       0.19      -0.01
      7.94      -0.60       0.47
      7.94      -0.80      -0.60
      7.86      -1.32       0.09
      8.39      -0.96      -0.10
      8.64      -0.58       0.24
      8.61      -0.62      -0.29
      7.54      -0.95       0.18
      7.40      -0.22       0.50
      8.43      -0.38      -0.00
      8.53      -0.70      -0.23
      8.83      -0.00       0.43
      7.88      -0.39       0.49
      7.65      -0.71       0.15
      8.67      -0.42      -0.35
      7.60      -0.06       0.06
      7.77       0.04      -0.46
      8.33      -0.16      -0.45
      8.02      -0.43      -0.03
      7.69      -0.09       0.15
      8.58       0.23      -0.49
      7.35      -0.63      -0.10
      6.97       0.17       0.22
      8.52      -0.30       0.07
      7.53      -0.12      -0.03
      8.32      -0.28       0.54
      8.58       0.20      -0.65
      8.13       0.04       0.71
      8.14      -0.32      -0.22
      8.46      -1.08       0.32
      8.05      -0.67      -0.16
      8.36      -0.46       0.23
      8.29      -0.45      -0.45
      8.86      -0.88      -0.40
      8.20      -0.65      -0.08
      8.24      -0.18      -0.35
      8.21      -0.22      -0.11
      8.60      -0.20       0.30
      8.68      -0.25       0.06
      8.74      -0.41       0.29
      9.22      -0.37      -0.23
      8.90       0.32       0.03
      8.56       0.51      -0.04
      8.03      -0.20       0.36
      7.88      -0.57      -0.14
      9.24      -0.47      -0.65
      9.35      -0.06      -0.28
      7.98      -0.33       0.24
      8.33      -0.45      -0.36
      8.94      -0.20      -0.53
      8.60       0.08       0.41
      7.60       0.08       0.23
      7.97       0.78      -0.19
      7.66       0.47       0.78
      9.00       0.46       0.22
      8.15       0.33       0.27
      8.10      -0.71      -0.32
      8.09      -0.90      -0.16
      8.52      -0.85      -0.21
      8.83      -0.62      -0.28
      9.42      -0.21      -0.39
      9.49       0.29      -0.10
      8.54       0.16       0.29
      8.78      -0.75       0.59
      8.86      -0.49       0.17
      9.49      -0.50      -0.05
      8.24      -0.24      -0.23
      7.98      -0.05       0.24
      8.53      -0.17       0.07
      7.74      -0.48       0.53
      9.71      -0.53      -1.10
      9.21      -0.41       0.58
      9.62      -1.21      -0.72
      8.75      -1.15       0.06
      8.36       0.05      -0.05
      8.89      -0.17      -0.07
      8.16       0.20       0.31
      7.25       0.14       0.42
      8.71       0.13       0.47
      7.66       0.84       1.00
      8.28       0.59       0.05
      8.52       0.24       0.25
      7.69      -0.37       0.50
      8.23      -0.69      -0.26
      8.55      -0.73      -0.16
      8.73      -0.83      -0.17
      9.29      -0.58      -0.74
      9.02      -0.24       0.14
      9.12      -0.08       0.31
      8.72      -1.02       0.38
      8.96      -0.80       0.21
      8.98      -0.75       0.12
      9.46      -0.80      -0.26
      9.05      -0.64      -0.04
      8.64      -0.58       0.47
      8.17      -0.19       0.65
      9.65      -0.42      -0.75
      8.55      -0.79       0.11
      9.28      -0.50      -0.46
      9.51      -0.75      -0.40
      9.80      -0.27      -0.37
      9.26       0.25      -0.23
      8.92      -0.30      -0.05
      8.69       0.27       0.48
      8.37      -0.02       0.51
      8.34       0.23       0.24
      8.57       0.08      -0.02
      8.21      -0.52       0.39
      7.87      -0.18       0.74
      8.66      -0.58      -0.02
      9.24      -0.78      -0.01
      9.38      -0.90      -0.14
      8.96      -0.76      -0.09
      8.77      -0.49       0.15
      9.30      -0.18       0.16
      8.49      -0.12       0.11
      8.58       0.01      -0.01
      9.24      -0.85       0.13
      9.37      -0.85      -0.30
      9.02      -1.21      -0.22
      8.67      -1.23      -0.09
      8.63      -0.62       0.22
      9.14       0.01      -0.00
      9.22      -0.72      -0.16
      9.83      -0.76      -0.70
      9.70      -0.43      -0.54
      9.45      -0.56      -0.58
      9.18      -0.05      -0.27
      8.53      -0.35       0.21
      7.94      -0.44       0.54
      8.69      -0.17      -0.43
      8.18      -0.37       0.43
      8.22      -0.78      -0.26
      8.66      -0.69       0.61
      8.32      -0.20       0.55
      8.65      -0.25      -0.31
      9.15      -0.09      -0.05
      9.56      -0.33       0.21
      9.91      -1.05       0.10
      9.22      -1.01       0.20
      9.31      -0.88      -0.00
      8.63      -0.00      -0.16
      8.77       0.06      -0.52
      9.02      -0.17       0.04
      9.32      -0.54      -0.02
      9.38      -0.69       0.06
      8.15      -0.84       0.19
      9.29      -0.45       0.50
      8.68      -0.61       0.35
      8.90      -0.29       0.40
      9.10       0.23      -0.70
      9.63      -0.40      -0.37
      9.38      -0.63      -0.22
      8.64      -0.97      -0.41
      8.55      -0.38       0.41
      8.50      -0.25      -0.38
      8.91      -0.55       0.15
      8.85      -0.78       0.30
      9.79      -0.52       0.10
      9.01      -0.25       0.50
      8.42      -0.34       0.51
      9.36      -0.70      -0.13
      9.14      -0.66       0.03
      9.49      -1.05       0.43
      9.27      -1.06       0.03
      9.66      -1.30       0.25
      9.88      -0.78      -0.21
      9.18       0.37      -0.40
      9.63       0.32      -0.35
      9.06       0.04       0.21
      9.45      -0.39       0.09
      9.11      -0.40      -0.03
      9.12      -0.86       0.50
      8.53      -0.89       1.01
      8.49      -0.73       0.81
      9.26      -1.29       0.03
      9.83      -0.67      -0.54
     10.08      -0.65      -0.50
      9.07      -1.03      -0.17
      9.36      -0.85      -0.11
      8.78      -1.00      -0.03
      8.92      -0.43      -0.12
      9.33      -0.68      -0.11
     10.02      -0.90      -0.07
      9.61      -0.41      -0.22
      9.82      -0.38       0.29
      8.56      -0.53       0.44
      9.19      -0.49      -0.09
      9.57      -0.56       0.32
      9.90      -0.53       0.31
      9.52      -0.73       0.19
     10.27      -0.81      -0.21
      9.95      -1.28      -0.24
      9.55      -0.30      -0.39
     10.14      -0.11       0.07
      9.38      -0.26       0.58
      9.27      -0.13       0.36
      9.37      -0.61       0.14
      9.17      -0.50       0.52
      9.00      -0.97       1.32
      9.23      -0.50       0.12
      9.90      -0.78      -0.01
     10.08      -0.52      -0.26
     10.27      -0.96      -0.44
      9.00      -1.09      -0.06
     10.08      -0.85      -0.08
      9.46      -0.91       0.14
      9.41      -0.57       0.19
      9.90      -0.75       0.13
      9.77      -0.71      -0.39
      9.19      -0.83       0.25
      9.11      -0.83       0.53
      9.28      -0.70      -0.10
      9.51      -0.78      -0.24
     10.16      -0.58      -0.04
     10.17      -0.20      -0.12
      9.96      -0.29       0.23
     10.07      -0.92      -0.10
      9.97      -1.27      -0.55
      9.37      -0.55      -0.39
      9.84      -0.49       0.32
      9.58      -0.64      -0.18
      9.16      -0.75       0.43
      9.09      -0.73       0.14
      8.96      -0.52       0.82
      9.35      -0.58       0.52
      9.75      -0.83       0.10
      9.72      -0.91      -0.14
      9.72      -0.80      -0.11
     10.11      -0.79      -0.07
      9.78      -1.34       0.03
      9.95      -1.40      -0.32
      9.77      -0.83       0.01
      9.71      -0.83       0.27
     10.26      -0.67       0.06
      9.80      -1.01       0.14
     10.02      -0.86      -0.14
     10.20      -0.79      -0.07
     10.48      -0.50       0.04
     10.59      -0.91      -0.28
     10.22      -0.85      -0.38
     10.03      -1.31      -0.11
     10.04      -0.90       0.07
     10.31      -0.86      -0.38
     10.23      -1.07      -0.29
