# vtk DataFile Version 3.0
Low resolution, disturbed wind of YZ Slice at time = 45 seconds.
ASCII
DATASET STRUCTURED_POINTS
DIMENSIONS     1    26    12
ORIGIN    1882.00     635.00      15.00
SPACING      30.00      30.00      30.00
POINT_DATA             312
VECTORS DisYZ float
      6.24       0.46       0.49
      4.56       0.58       0.26
      5.46      -0.27       0.49
      7.73       0.29      -0.53
      4.80       0.59       0.37
      4.93       0.67      -0.00
      5.90       0.34      -0.24
      5.51       0.68      -0.28
      6.10       0.41      -0.23
      4.96       0.49       0.25
      5.18       0.16      -0.04
      5.61       0.27      -0.11
      5.81       0.97       0.01
      4.76       0.91       0.16
      5.48       0.91      -0.22
      5.35       0.66      -0.05
      4.84       0.26      -0.04
      5.95      -0.19      -0.30
      4.99      -0.23       0.45
      5.43      -0.05       0.10
      7.11      -0.59      -0.08
      7.74      -0.26      -0.10
      6.15       0.17       0.43
      6.48       0.16      -0.47
      7.25       0.72      -0.52
      6.34       0.45       0.04
      6.22       0.46       0.15
      6.19      -0.41       0.37
      6.84      -0.65       0.29
      7.02      -0.80       0.07
      7.36       0.31       0.01
      6.42       0.67       0.29
      6.12       0.28       0.09
      6.83       0.01      -0.68
      6.83      -0.02      -0.14
      5.96      -0.33      -0.08
      5.61       0.85       0.07
      6.46       0.32      -0.56
      6.73       0.14      -0.17
      6.74       0.02       0.37
      6.66       0.31       0.05
      6.98       0.94      -0.14
      6.70       1.14       0.19
      6.16       0.77       0.14
      6.31       0.08      -0.08
      6.46       0.12       0.33
      6.96       0.76      -0.55
      9.18       0.52      -0.15
      7.10       0.11       0.20
      6.43       0.55      -0.05
      7.50      -0.04       0.17
      6.75      -0.96       0.16
      6.74      -0.58       0.43
      7.83      -0.29       0.03
      6.89      -0.19       0.25
      7.40       0.31       0.05
      7.83      -0.20       0.01
      7.10      -0.10      -0.38
      6.74       0.18       0.17
      8.03      -0.16      -0.26
      7.54      -0.26      -0.30
      7.60      -0.11      -0.36
      6.54       0.01      -0.17
      6.75      -0.24       0.01
      7.24      -1.19      -0.23
      6.51      -0.93      -0.16
      7.65      -0.14      -0.80
      7.67       0.27      -0.52
      6.73       0.05       0.32
      6.76      -0.62       0.41
      7.16      -0.50       0.39
      8.50       0.50      -0.22
      7.96       0.47       0.21
      8.46       0.23      -0.17
      7.72      -0.06       0.20
      7.66       0.26       0.21
      8.26      -0.37       0.28
      8.25      -0.25       0.07
      7.11      -0.23       0.50
      7.71      -0.24       0.11
      7.99      -0.07       0.26
      7.55       0.19       0.35
      7.91       0.00       0.13
      7.75       0.44       0.02
      8.52       0.79      -0.31
      8.18       0.60      -0.19
      7.85      -0.35       0.13
      8.37       0.07      -0.04
      7.32       0.37       0.44
      7.11      -0.36      -0.47
      8.04      -0.37      -0.09
      7.39      -0.62      -0.42
      8.80      -0.34      -0.82
      8.53       0.09      -0.44
      6.57      -0.64       0.37
      7.24      -0.59       0.58
      7.91      -0.12       0.44
      8.05      -0.01      -0.17
      8.49       0.08      -0.27
      8.09       0.05       0.07
      7.74      -0.32       0.45
      8.29      -0.14       0.56
      8.34      -0.34       0.26
      8.89      -0.41      -0.48
      6.99      -0.29       0.54
      7.81       0.44       0.32
      9.44       0.29      -0.10
      8.54       0.04       0.25
      8.33       0.66      -0.34
      8.79       0.03      -0.00
      8.57       0.42      -0.16
      8.26       0.67       0.17
      8.27       0.63      -0.02
      8.64       0.08       0.11
      8.39      -0.03      -0.02
      7.39      -0.18       0.28
      8.13      -0.99       0.11
      8.67      -0.65      -0.46
      9.05      -0.68      -0.66
      8.88      -0.73      -0.42
      8.37      -0.70      -0.09
      7.63      -0.35       0.54
      8.85      -0.31       0.24
      8.83      -0.69      -0.50
      8.77      -0.46      -0.16
      8.65      -0.09       0.38
      8.65      -0.19       0.51
      8.94      -0.39       0.70
      8.70      -0.71       0.22
      8.60      -0.36      -0.41
      9.04      -0.16       0.46
      8.71      -0.18       0.38
      8.23       0.09       0.14
      8.58      -0.16       0.07
      8.54      -0.16      -0.29
      8.31       0.20       0.21
      8.68      -0.00      -0.04
      8.67      -0.24      -0.14
      8.73      -0.33       0.14
      9.00      -0.43      -0.17
      8.52      -0.39      -0.19
      7.97      -0.32       0.47
      7.97      -0.54      -0.03
      8.68      -0.65      -0.59
      9.38      -0.89      -0.78
      9.04      -0.74      -0.39
      8.36      -0.78       0.28
      8.99      -0.44      -0.04
      9.08      -0.67      -0.05
      9.03      -0.68      -0.32
      9.36      -0.83      -0.58
      8.79      -0.53       0.13
      8.55      -0.09       0.50
      8.83       0.56       0.53
      8.43       0.27       0.25
      8.92      -0.19      -0.31
      8.76      -0.95      -0.14
      8.64      -0.89      -0.11
      8.23      -0.10       0.28
      8.47      -0.06       0.22
      8.76      -0.44      -0.02
      9.04      -0.00      -0.01
      8.76       0.27       0.26
      8.48       0.25       0.50
      8.68      -0.12       0.08
      9.66      -0.56       0.05
      8.97      -0.40       0.15
      8.52      -0.38       0.27
      8.41      -0.24      -0.22
      9.04      -0.34      -0.44
      9.38      -0.73      -0.64
      9.04      -1.16      -0.41
      9.11      -0.73       0.22
      9.11      -0.77       0.12
      9.21      -0.75      -0.47
      9.33      -0.65      -0.49
      9.51      -0.36      -0.45
      9.68      -0.34      -0.04
      8.98      -0.57      -0.04
      8.75      -0.51       0.44
      8.89      -0.32       0.42
      9.16      -0.72       0.05
      8.69      -0.89       0.39
      9.14      -0.80      -0.40
      8.85      -0.70       0.21
      9.89      -0.78      -0.19
      9.41      -0.42      -0.29
      9.07      -0.26      -0.57
      8.56      -0.11      -0.30
      8.30       0.05       0.60
      8.90       0.10       0.91
      8.69       0.00       0.18
      9.03       0.05       0.06
      9.06       0.19       0.28
      9.29       0.22      -0.18
      9.22       0.16      -0.16
      9.57      -0.02      -0.29
      9.56      -0.61      -0.12
      9.60      -0.90      -0.33
      8.95      -0.47       0.29
      9.22      -0.46      -0.37
      9.51      -0.75      -0.58
      9.38      -0.78      -0.62
      9.57      -0.91      -0.02
     10.05      -0.42      -0.14
      9.26      -0.34       0.32
      8.88      -0.24       0.45
      9.31      -0.52       0.02
      9.15      -0.95       0.16
      9.68      -0.90      -0.25
      9.49      -0.92      -0.03
      9.91      -0.90      -0.19
      9.08      -0.85      -0.40
      9.73      -0.50      -0.56
      9.08      -0.46      -0.50
      8.51       0.04      -0.01
      8.57       0.31       0.39
      8.41       0.61       0.02
      8.78       0.62       0.08
      9.02      -0.07       0.36
      9.35      -0.12      -0.27
      9.53      -0.39      -0.12
      9.97      -0.72      -0.45
      9.49      -0.48       0.12
      9.54      -0.52      -0.14
     10.13      -0.45      -0.15
      9.43      -0.58      -0.31
      9.36      -0.72      -0.36
      9.63      -0.88      -0.19
      9.92      -0.97      -0.18
     10.21      -0.59       0.11
     10.08       0.00       0.34
      9.38      -0.06       0.52
      9.46      -0.27       0.49
      8.69      -0.44       0.26
      9.43      -0.49       0.01
      9.55      -0.87      -0.21
      9.36      -0.99       0.20
     10.24      -1.02      -0.33
      9.83      -1.02      -0.38
      9.52      -0.62      -0.00
      9.20      -0.53      -0.18
      8.45      -0.07       0.59
      8.69      -0.01       0.41
      9.40       0.27       0.15
      9.44       0.23       0.14
      9.29      -0.02       0.23
      9.81      -0.60      -0.05
     10.06      -0.71      -0.43
      9.74      -0.82       0.05
      9.49      -0.78       0.12
      9.83      -0.69      -0.20
      9.76      -0.65      -0.12
      9.85      -1.06       0.03
      9.99      -1.19      -0.23
     10.07      -1.04      -0.44
      9.42      -0.46       0.19
      9.56      -0.20       0.12
      9.52      -0.02       0.40
      9.74      -0.02       0.38
      9.32      -0.51       0.37
      9.12      -0.73       0.09
      9.72      -0.58       0.22
      9.30      -0.89       0.07
     10.16      -0.49      -0.48
      9.78      -0.86      -0.26
      8.88      -1.00      -0.04
      9.05      -1.07       0.06
      9.13      -0.29       0.26
      9.25       0.04       0.15
      9.15       0.16       0.23
      9.04      -0.10       0.30
      9.13      -0.26      -0.03
      9.69      -0.79       0.01
      9.85      -0.89      -0.21
      9.78      -0.89      -0.14
      9.89      -0.58      -0.01
      9.05      -0.97       0.20
      9.35      -0.90      -0.09
      9.84      -0.93       0.29
      9.62      -0.80      -0.15
      9.87      -0.84      -0.34
      9.47      -0.78      -0.06
      9.84      -0.28       0.15
      9.80      -0.21       0.18
      9.66      -0.00       0.56
      8.71      -0.48       0.43
      9.38      -0.58       0.33
      9.53      -0.72       0.08
      9.43      -0.74       0.32
     10.01      -0.43      -0.02
     10.10      -1.05      -0.22
     10.05      -1.10       0.09
      9.62      -0.98      -0.02
      9.64      -0.80      -0.11
      9.52      -0.93      -0.11
      9.52      -0.97       0.14
      9.50      -0.74       0.14
      9.65      -0.69       0.33
     10.17      -0.65      -0.09
      9.93      -0.75      -0.12
     10.11      -1.06      -0.21
     10.27      -0.92      -0.40
      9.98      -0.68       0.11
      9.35      -1.09       0.09
      9.75      -0.98       0.17
      9.94      -0.97      -0.09
     11.12      -1.04      -0.37
     10.03      -1.05      -0.03
     10.29      -1.12       0.07
     10.89      -0.93       0.02
     10.57      -0.69       0.18
