# vtk DataFile Version 3.0
Low resolution, disturbed wind of XZ Slice at time = 54 seconds.
ASCII
DATASET STRUCTURED_POINTS
DIMENSIONS    47     1    12
ORIGIN     635.00    1000.00      15.00
SPACING      30.00      30.00      30.00
POINT_DATA             564
VECTORS DisXZ float
      4.81      -0.51       0.44
      4.45       0.82       0.44
      4.66      -0.05      -0.42
      5.02       0.67      -0.42
      5.82       0.35      -0.32
      4.40       0.42       0.42
      4.83      -0.97      -0.46
      5.84      -0.36      -0.10
      4.61      -0.35      -0.25
      4.46       0.46      -0.13
      4.37       0.34      -0.28
      5.34       0.28      -0.08
      3.71      -0.24       0.24
      4.03      -0.24       0.66
      3.79       0.26      -0.20
      4.00       0.01       0.19
      3.64       0.05       0.58
      5.30       0.51       0.45
      5.66       0.32      -0.16
      5.66       0.11       0.39
      5.76      -0.11       0.40
      5.51      -0.23       0.17
      4.73       0.12       0.02
      3.94      -0.25      -0.27
      4.34       0.67       0.78
      5.15      -0.28      -0.23
      5.26      -1.22      -0.55
      4.88      -0.55      -0.28
      4.45      -1.10       0.10
      5.72      -0.05      -0.39
      5.03       0.40      -0.08
      5.05       0.80      -0.62
      5.21       1.35      -0.17
      4.69      -0.37       0.02
      4.38       0.53      -0.04
      5.17       0.42      -0.24
      4.83      -0.09      -0.07
      4.80       0.07      -0.34
      4.60       0.59      -0.00
      4.81       0.46      -0.30
      4.20       0.37      -0.05
      5.49      -0.27      -0.41
      5.13      -0.19      -0.26
      5.88       1.09      -0.21
      5.81       0.60      -0.37
      5.11       0.56       0.33
      4.87       0.32       0.06
      5.58      -0.15       0.38
      5.73      -0.31       0.03
      5.86      -0.42      -0.13
      5.41      -1.15      -0.14
      5.05      -0.02       0.01
      4.93       0.23       0.82
      6.09      -0.91       0.02
      6.04      -0.03       0.02
      5.90      -0.47      -0.34
      5.82       0.33      -0.31
      6.50       0.24       0.00
      7.07       0.66       0.10
      2.08       0.96       0.30
      2.44       0.46       0.46
      2.34       0.76       0.06
      2.23       0.31       0.62
      2.31      -0.43       0.07
      2.80       0.09       0.29
      3.49      -0.04      -0.31
      4.12      -0.02      -0.00
      4.64       0.18       0.33
      4.26      -0.30      -0.16
      4.67      -0.71       0.45
      4.47       0.48       0.70
      5.76      -0.25       0.04
      5.84       0.33       0.27
      6.12       0.43       0.75
      7.37      -0.86       0.56
      6.70      -0.46       0.70
      6.96      -0.88       0.45
      6.28      -0.15       0.36
      7.40       1.31      -0.20
      6.64       0.35      -0.75
      6.37       0.36       0.65
      7.33       0.29      -0.50
      6.55       0.12       0.00
      6.45       0.05      -0.19
      6.57      -0.05      -0.03
      5.99       0.62       0.45
      6.20       0.49      -0.10
      6.53       0.44       0.07
      6.18       0.51      -0.55
      6.71       0.49       0.16
      7.10       0.58      -0.05
      7.02      -0.51      -0.21
      6.93       0.09       0.07
      6.72       0.65      -0.22
      7.13      -0.16       0.08
      6.82      -0.00      -0.27
      6.55      -0.71      -0.11
      6.43      -0.35       0.26
      6.29      -0.82       0.72
      6.77      -0.55       0.13
      6.63       0.67       0.20
      7.66      -0.45       0.63
      6.43      -0.28      -0.06
      6.90       0.43       0.26
      6.56       0.16       0.29
      6.57       0.24       0.50
      3.18      -0.15       0.78
      3.54      -0.03       0.24
      3.45       0.24       0.50
      3.54       0.21       0.87
      3.44      -0.22       0.37
      3.18      -0.09       0.23
      3.64      -0.45       0.22
      3.72      -0.54       0.36
      3.73      -0.57       0.52
      3.75       0.12       0.59
      3.65       0.16       0.34
      3.88       0.13       0.53
      7.61      -0.12       0.17
      7.49       0.02       0.23
      7.11      -0.36       0.91
      7.10      -0.03       0.39
      7.24      -0.45       0.43
      7.43      -0.32       0.56
      7.06      -0.65       0.79
      7.84      -0.18      -0.27
      7.68       0.40      -0.55
      6.58       0.39      -0.09
      6.68       0.22       0.10
      6.95      -0.84       0.19
      7.62      -0.34      -0.24
      7.08      -0.28      -0.03
      7.65       0.12       0.07
      7.23       0.64      -0.08
      7.15       0.26      -0.11
      7.37       0.80       0.02
      6.66      -0.04      -0.14
      7.02      -0.78      -0.72
      6.54      -1.35      -1.02
      7.63       0.32      -0.57
      6.43       0.26       0.32
      7.44       0.11      -0.27
      7.67      -0.15      -0.46
      7.52      -0.30       0.41
      7.62       0.07       0.42
      6.96      -0.48       0.25
      7.04      -1.19       0.14
      7.04      -1.28       0.06
      6.92      -0.14       0.62
      7.50      -0.38       0.37
      7.76      -0.10       0.07
      7.08      -0.03       0.50
      6.88       0.01       0.06
      7.56       0.04       0.43
      3.75      -0.03       1.09
      3.47      -0.15       1.10
      3.58      -0.25       1.31
      4.28      -1.23       0.80
      5.12      -1.10       0.22
      4.99      -0.78      -0.23
      4.42      -0.29       0.74
      4.22       0.12       0.73
      4.16      -0.21       0.65
      4.54       0.11       0.54
      4.19       0.36       0.37
      7.84       0.73       0.01
      7.40       1.45       0.23
      8.07       1.05       0.22
      7.84       0.42       0.57
      7.69      -0.13       0.25
      8.18      -0.35       0.17
      8.17       0.18       0.25
      8.61      -0.26      -0.03
      8.65      -0.36      -0.35
      8.36      -0.13       0.37
      8.06       0.55       0.05
      7.37       0.34       0.36
      7.81      -0.64       0.20
      8.14       0.05      -0.13
      8.71      -0.62      -0.26
      7.60       0.64       0.19
      7.41       0.71      -0.38
      7.43       0.46       0.03
      7.61      -0.05      -0.31
      7.77      -1.00      -0.37
      7.75      -0.45      -0.20
      8.19      -1.09      -0.08
      7.74       0.23      -0.01
      8.84      -0.44       0.11
      9.26      -0.56      -0.18
      8.68      -0.37       0.40
      9.36      -0.63      -0.17
      8.71      -0.15       0.30
      8.64      -0.23      -0.23
      7.65      -1.27       0.09
      7.35      -1.75       0.51
      7.13      -1.02       0.13
      7.39       0.13       0.21
      6.53       0.08       0.52
      6.23      -0.33       0.67
      6.46      -0.02       0.42
      2.94       0.02       0.18
      3.24       0.12       0.44
      3.28       0.03       0.54
      3.72      -0.17       0.47
      3.72      -0.07       0.23
      3.87      -1.18       0.71
      4.25      -1.09       0.65
      3.82      -0.41       0.91
      4.46      -0.55       0.64
      4.21       0.10       0.73
      4.64       0.00       0.55
      8.25       0.04       0.18
      8.17      -0.01      -0.15
      8.08       0.40       0.20
      8.24       0.92       0.49
      8.10       0.50       0.36
      8.21       0.83       0.24
      8.54       0.31       0.43
      8.47      -0.11       0.23
      8.41      -0.13      -0.02
      8.21      -0.09       0.13
      8.12       0.07       0.38
      8.38       0.44       0.01
      8.46       0.00      -0.05
      8.45       0.01      -0.40
      8.75       0.05      -0.17
      8.49       0.04       0.21
      8.00       0.48       0.19
      7.56      -0.32       0.45
      8.04      -0.36       0.50
      8.24      -0.81       0.02
      8.47      -0.92       0.12
      8.26      -1.11       0.78
      8.96      -0.35      -0.09
      9.38      -0.35       0.10
      9.06      -0.55       0.01
      9.44      -0.36       0.18
      9.85      -0.43      -0.06
      8.64       0.04       0.17
      8.30      -0.17      -0.54
      9.27      -1.01      -0.05
      7.77      -1.36       0.78
      7.78      -0.96       0.69
      7.40      -0.30       0.86
      7.41       0.01       1.08
      7.56       0.74       0.25
      8.06       0.78      -0.60
      6.25      -0.07      -0.95
      6.91       0.40      -0.90
      6.35       0.29      -0.27
      6.04      -0.19      -0.00
      5.95      -0.00      -0.03
      5.67      -0.36       0.12
      5.75      -0.56       0.70
      6.12      -0.33       0.55
      6.27      -0.20       0.77
      6.64       0.27       0.50
      6.80      -0.01       0.29
      8.20      -0.26       0.31
      8.36      -0.62       0.05
      8.26      -1.03       0.31
      8.16       0.21       0.08
      8.36       0.60       0.41
      8.18       0.81       0.38
      8.28       0.07       0.41
      8.63      -0.14       0.02
      8.53      -0.38       0.05
      8.64      -0.41      -0.10
      9.06      -0.17      -0.05
      9.12       0.21       0.22
      8.82       0.35      -0.19
      8.99       0.10      -0.35
      8.39      -0.29       0.14
      7.94      -0.16       0.26
      8.18       0.21       0.23
      8.31       0.17       0.42
      7.99       0.41       0.21
      7.80      -0.18       0.14
      8.22      -0.56      -0.09
      8.43      -0.87      -0.11
      8.67      -0.23       0.26
      9.17      -0.15       0.50
      9.31      -0.73       0.15
      9.09      -0.32       0.17
      9.00      -0.40       0.32
      9.17      -0.13       0.25
      9.68       0.40      -0.40
      8.18      -0.40      -0.14
      8.45      -0.94       0.98
      7.59      -0.67       0.91
      7.37      -0.28       1.01
      7.69      -0.20       1.15
      8.57       0.43       0.42
      8.37       0.38      -0.20
      8.37      -0.66      -1.16
      8.56      -0.17      -0.66
      8.41       0.21      -0.20
      7.91      -0.31       0.09
      8.20      -0.10       0.32
      8.07      -0.04       0.39
      8.05      -0.41       0.23
      8.44      -0.50       0.09
      8.60      -0.86       0.06
      8.78      -0.81       0.26
      8.58      -0.47       0.35
      8.56       0.06       0.52
      8.40       0.16       0.39
      8.73      -0.10       0.52
      8.91       0.08       0.33
      9.04      -0.09       0.49
      9.23       0.61       0.19
      8.53       0.40       0.46
      8.95       0.52       0.62
      9.12      -0.42      -0.04
      9.05      -0.25       0.12
      9.07      -0.45       0.25
      8.84      -0.20       0.15
      9.00      -0.58      -0.15
      8.78      -0.53      -0.04
      8.53       0.30       0.44
      8.50      -0.14       0.59
      8.11      -0.09       0.48
      8.76       0.01       0.14
      9.22       0.62       0.32
      8.45       0.31       0.54
      8.42      -0.22      -0.32
      8.57      -0.37      -0.25
      8.94      -0.60       0.15
      9.06       0.54       0.29
      9.36      -0.35       0.30
      8.99      -0.44       0.48
      8.91      -0.25       0.27
      9.39       0.06      -0.09
      9.07      -0.14       0.00
      8.80      -0.42       0.18
      8.24      -0.84       0.76
      8.04      -0.71       1.08
      7.84      -0.85       1.31
      8.52      -1.41       1.07
      9.74      -1.20       1.30
      9.22      -1.78       0.22
      8.89      -0.66      -0.78
      8.49       0.32      -0.36
      8.89      -0.41       0.10
      8.82      -0.99       0.03
      8.34      -0.60       0.21
      8.43      -0.63       0.31
      8.26      -0.75       0.75
      8.80      -1.26       0.37
      9.17      -1.24       0.31
      9.09      -1.20       0.41
      8.32      -1.04       0.24
      8.47      -0.77       0.43
      8.77      -0.87       0.45
      8.71      -0.87       0.72
      8.83      -1.07       0.84
      9.02      -1.31       0.41
      8.96       0.02       0.56
      9.24       0.34       0.74
      9.56      -0.10       0.53
      9.22      -0.35       0.39
      9.01      -0.64       0.27
      8.93      -0.83       0.48
      8.77      -0.70       0.04
      8.73      -0.84      -0.26
      8.80      -0.56      -0.30
      8.69       0.08       0.27
      9.07      -0.13       0.27
      9.54      -0.20      -0.07
      9.83      -0.04      -0.36
      9.37      -0.03       0.17
      9.01       0.42       0.50
      9.34       0.30      -0.18
      9.26       0.02      -0.40
      9.02      -0.19      -0.10
      8.94       0.48       0.20
      8.67      -0.13       0.61
      8.81      -0.37       0.81
      9.00      -0.34       0.53
      8.87      -0.04       0.14
      8.99       0.22       0.17
      8.62      -0.21      -0.06
      8.37      -0.15       0.54
      8.45      -0.25       0.91
      8.88      -0.56       0.79
      9.04      -0.47       1.15
      8.98      -1.44       1.35
      9.63      -1.63       0.39
      9.57      -0.59      -0.01
      9.01      -0.36       0.01
      8.77      -0.26      -0.13
      8.84      -0.45       0.42
      8.80      -0.52       0.43
      8.86      -0.54       0.24
      9.27      -0.73       0.00
      9.91      -1.15      -0.35
      9.49      -0.95       0.09
      8.92      -1.01       0.61
      8.79      -0.51       0.35
      8.69      -0.85       0.46
      8.75      -1.13       0.44
      9.24      -1.17       0.38
      8.97      -1.13       0.33
      8.53      -0.81       0.51
      8.58      -0.74       0.63
      8.73      -0.84       0.49
      9.11      -1.01       0.26
      9.45      -0.86       0.28
      9.37      -0.77       0.43
      8.89      -1.22       0.57
      8.75      -1.47       0.22
      8.98      -0.96      -0.47
      8.93      -0.90      -0.35
      8.86      -0.90      -0.18
      8.88      -0.54      -0.10
      9.20       0.05      -0.03
      9.19       0.08      -0.08
      8.86       0.06       0.01
      8.96      -0.02       0.01
      9.35      -0.20      -0.19
      9.54      -0.17      -0.42
      9.65      -0.11      -0.53
      8.85       0.25       0.52
      8.59      -0.37       0.78
      8.52      -0.60       0.94
      8.92      -0.80       0.42
      9.10      -0.72       0.05
      9.24      -0.06       0.10
      9.13       0.21       0.11
      9.52      -0.14       0.07
      9.67      -0.02       0.52
      9.51      -0.35       0.50
      8.94      -0.42       0.46
      8.76      -0.19       0.55
      9.09      -0.20       0.53
      9.02      -0.22       0.35
      8.85      -0.28       0.40
      9.15      -0.62       0.49
      9.17      -1.15       0.73
      9.12      -0.81       0.65
      9.15      -0.99       0.53
      9.18      -0.81       0.12
      9.67      -0.35      -0.10
      9.53      -1.03       0.55
      9.14      -1.11       0.65
      9.10      -0.58       0.61
      9.22      -0.30       0.16
      9.48      -0.40      -0.03
      9.17      -0.35       0.09
      8.98      -0.62       0.23
      9.11      -0.67       0.22
      9.38      -0.61       0.18
      9.72      -0.98       0.19
      9.67      -1.30      -0.34
      9.23      -0.97      -0.15
      9.43      -0.63       0.48
      9.87      -0.98       0.37
      9.74      -1.13      -0.10
      9.66      -0.61      -0.31
      9.45      -0.77      -0.05
      9.37      -0.86       0.22
      9.31      -0.55       0.14
      9.02      -0.25      -0.07
      8.94      -0.06       0.04
      9.14       0.00       0.12
      9.22       0.17       0.13
      9.28       0.04       0.17
      9.58      -0.35       0.02
     10.05      -0.67      -0.19
      9.34       0.53       0.22
      9.05       0.14       0.52
      9.27      -0.52       0.54
      9.42      -0.56       0.21
      9.46      -0.31       0.01
      9.74      -0.34       0.01
      9.68      -0.32       0.11
      9.99      -0.07       0.04
      9.73      -0.02       0.21
      9.26      -0.10       0.46
      9.27      -0.19       0.55
      9.40      -0.03       0.46
      9.25      -0.10       0.08
      9.02      -0.77       0.29
      9.12      -1.19       0.55
      9.32      -0.74       0.47
      9.29      -0.38       0.65
      9.49      -1.11       0.99
      9.53      -1.29       1.08
      9.28      -0.51       0.27
      8.94      -0.24       0.07
      8.84      -0.55       0.70
      8.78      -0.46       0.88
      8.89      -0.25       0.72
      9.47      -0.10       0.51
      9.95      -0.33       0.39
      9.83      -0.39       0.02
     10.16      -0.56       0.10
      9.94      -0.53       0.01
      9.77      -0.61       0.39
      9.59      -0.64       0.27
      9.49      -0.90       0.13
      9.56      -1.31       0.03
      9.53      -1.19      -0.16
      9.65      -1.07      -0.03
      9.83      -1.24       0.16
      9.73      -0.92       0.17
      9.37      -0.78       0.11
      8.98      -1.16       0.09
      8.99      -1.07      -0.01
      9.33      -0.84      -0.26
      9.18      -0.82      -0.16
      8.98      -0.61      -0.09
      8.95      -0.23      -0.06
      9.14      -0.27      -0.04
      9.57      -0.69      -0.11
     10.00      -0.83      -0.19
      9.48       0.56       0.06
      9.71       0.51       0.15
      9.70       0.05       0.31
      9.60      -0.40      -0.03
      9.71      -0.64      -0.10
      9.78      -0.30      -0.10
      9.79      -0.14       0.06
      9.61      -0.38       0.41
      9.49      -0.09       0.14
      9.67       0.02       0.02
      9.54      -0.18       0.15
      9.24      -0.26       0.17
      9.01      -0.32       0.34
      9.08      -0.36       0.53
      9.22      -0.20       0.55
      9.06      -0.06       0.39
      9.00      -0.11       0.52
      9.26      -0.27       0.59
      9.27       0.01       0.54
      9.16       0.03       0.57
      8.84      -0.10       0.31
      8.79      -0.46       0.47
      9.23      -0.59       0.60
      9.55      -0.09       0.34
      9.75       0.33       0.14
      9.91       0.34       0.38
      9.99       0.32       0.26
      9.96       0.22      -0.21
     10.03      -0.23      -0.06
      9.95      -0.32       0.29
      9.97      -0.52       0.24
      9.93      -0.61       0.19
      9.90      -0.69       0.10
      9.96      -0.83      -0.08
      9.94      -0.87      -0.32
      9.78      -0.86      -0.20
      9.60      -0.94       0.18
      9.67      -1.05       0.19
      9.90      -1.00      -0.06
      9.88      -0.82      -0.15
      9.83      -0.99      -0.13
      9.87      -1.10      -0.13
      9.83      -0.80       0.06
      9.69      -0.59       0.21
      9.73      -0.64       0.26
      9.78      -0.78       0.21
      9.62      -0.91       0.10
