# vtk DataFile Version 3.0
Low resolution, disturbed wind of XZ Slice at time = 18 seconds.
ASCII
DATASET STRUCTURED_POINTS
DIMENSIONS    47     1    12
ORIGIN     635.00    1000.00      15.00
SPACING      30.00      30.00      30.00
POINT_DATA             564
VECTORS DisXZ float
      4.09      -0.27       0.11
      4.34      -1.02      -0.04
      4.20      -0.40       0.07
      4.95      -0.12      -0.05
      4.52       0.04      -0.00
      4.58       0.86       0.20
      5.28       0.48      -0.10
      4.55      -0.04       0.14
      4.37       0.27       0.50
      5.27       0.17      -0.19
      5.50       0.26      -0.42
      5.43       0.62       0.15
      4.95       0.70       0.05
      5.88      -0.09       0.46
      6.01      -0.45       0.31
      4.48      -0.40       0.68
      4.29       0.49       1.37
      3.26      -0.63       0.13
      4.50       0.87       0.34
      5.34      -0.29      -0.58
      3.89       0.04       0.51
      4.38      -0.13       0.36
      3.15       0.01       0.99
      3.78      -0.48      -0.13
      4.79       1.07      -0.19
      4.46       0.33       0.16
      4.78      -0.04       0.05
      5.48       0.93      -0.54
      4.20      -0.25      -0.38
      4.64      -0.23       0.14
      4.27      -0.07      -0.18
      4.37      -0.86      -0.36
      4.88       0.55      -0.12
      4.78       0.46      -0.25
      5.28       0.17      -0.20
      5.71       0.91      -0.18
      5.77       0.90      -0.35
      5.68      -0.69       0.30
      4.03       0.67       0.81
      5.40      -0.53      -0.06
      3.82       0.72       0.72
      5.34       0.19      -0.58
      5.48       0.15       0.15
      4.89      -0.12       0.09
      6.04       0.00       0.08
      4.03       0.29       0.22
      5.99       0.22      -0.08
      5.51      -0.26       0.30
      5.88       0.05       0.01
      6.11       0.68      -0.01
      6.24       0.34      -0.20
      6.22       0.13       0.02
      6.02       0.05       0.09
      6.61       0.14      -0.24
      6.21      -0.15      -0.10
      5.74      -0.42       0.22
      6.22      -0.05       0.11
      6.96       0.22      -0.06
      6.75      -0.01       0.19
      2.21       0.63       0.38
      2.73       0.32       0.19
      2.99      -0.31       0.15
      2.27      -0.12       0.93
      1.89      -0.80       1.19
      6.51      -0.55      -0.20
      5.79      -0.75       0.93
      7.22      -0.91       0.19
      6.97      -0.09      -0.48
      7.11      -0.51      -0.10
      5.46      -0.92       1.16
      5.99      -0.06      -0.48
      5.82       0.19      -0.25
      6.31       0.86      -0.07
      6.21       0.67       0.64
      6.10       0.57       0.18
      6.23       0.32       0.11
      6.60       0.06       0.22
      5.98       0.02       0.37
      6.23       0.50       0.04
      6.26       0.92       0.20
      6.17       0.18      -0.24
      6.09      -1.10      -0.58
      6.78      -0.16      -0.06
      7.68      -0.45      -0.82
      6.72       0.71      -0.21
      6.74       0.73      -0.40
      6.55       0.45       0.66
      5.61       0.39       0.46
      6.56       0.18      -0.28
      6.86       0.03      -0.55
      7.26      -0.16      -0.24
      6.04      -0.57       0.20
      5.65      -0.23       0.04
      6.76       0.83      -0.00
      6.21      -0.01       0.65
      6.43       0.21       0.35
      6.70       0.31       0.07
      6.82       0.48       0.06
      6.76       0.38      -0.01
      6.57      -0.09       0.23
      6.63      -0.12       0.33
      6.57      -0.21       0.35
      6.42      -0.22       0.07
      6.66      -0.21       0.10
      7.13       0.11       0.18
      6.92       0.12       0.47
      3.51       0.36       0.61
      4.09       0.32       0.78
      4.26       0.46       0.52
      4.07      -0.16       0.70
      4.29      -0.35       0.77
      7.60      -0.34       0.35
      7.54       0.04       0.12
      7.54      -0.39       0.02
      7.26      -0.48      -0.10
      7.62      -0.24      -0.15
      7.61      -0.41       0.31
      7.46       0.24      -0.33
      6.44       0.13      -0.52
      6.26       0.46       0.85
      6.67       0.03       0.38
      7.24      -0.19       0.04
      6.97      -0.30       0.29
      7.89      -0.32       0.34
      7.45       0.45      -0.16
      6.65       0.24      -0.05
      6.89       0.12       0.34
      6.45       0.33       0.54
      6.55      -0.25       0.40
      7.30      -0.86      -0.32
      7.44       0.08      -1.19
      7.12      -0.33      -0.06
      6.90       1.20       0.10
      6.70       0.99      -0.40
      6.39       0.86       0.09
      7.74       0.26      -0.71
      7.71       0.22       0.07
      7.36       0.09      -0.32
      7.10       0.28       0.40
      6.48      -0.36       0.81
      6.96       0.39      -0.49
      7.94       0.13       0.21
      7.58       0.22       0.49
      6.86       0.32       0.05
      6.21      -0.09       0.27
      6.01       0.10       0.23
      6.84       0.12       0.76
      7.09      -0.15       0.20
      7.43      -0.54       0.22
      7.87      -0.73       0.01
      7.27      -0.71       0.24
      7.13      -0.69       0.39
      7.16      -0.06       0.69
      7.29       0.44       0.54
      4.45       0.42       0.55
      4.43       0.39       0.70
      4.62       0.53       0.56
      4.86       1.18       0.31
      7.81       1.11       0.07
      8.03       0.67       0.03
      8.25       0.04       0.16
      7.68       0.43       0.42
      8.13      -0.00       0.04
      8.35      -0.09      -0.00
      8.48      -0.06      -0.18
      8.07       0.23       0.02
      7.79       0.47       0.47
      7.17       0.20       0.41
      8.45      -0.63       0.28
      8.01      -0.12      -0.24
      8.10       0.07      -0.27
      8.34       0.28       0.19
      7.48       0.50      -0.19
      7.08      -0.16       0.42
      7.44       0.25       0.19
      8.45      -0.20      -0.49
      8.45      -0.55      -0.10
      8.01      -0.21      -0.18
      7.15      -0.71      -0.11
      7.86      -0.64       0.08
      8.22      -0.30      -0.64
      7.76      -0.18      -0.11
      7.72       0.38       0.07
      7.91       0.53      -0.06
      8.19       0.13      -0.28
      8.72      -0.54      -0.21
      8.75       0.14      -0.28
      7.58       0.56       0.60
      7.43       0.00       0.76
      7.17       0.40       0.58
      6.52      -0.31       0.41
      6.44      -0.14       0.05
      6.90      -0.03      -0.19
      7.32      -0.08       0.30
      7.57      -0.19       0.31
      7.23      -0.38       0.22
      7.19      -0.58       0.09
      7.42      -0.61       0.43
      6.88      -0.20       0.51
      7.24      -0.04       0.43
      7.46       0.05       0.30
      3.32      -0.14       0.81
      3.68      -0.12       0.77
      3.97      -0.09       0.46
      3.87       0.29       0.24
      8.43       0.72       0.04
      8.28       0.77      -0.11
      8.41       0.53       0.21
      8.37       0.44       0.57
      8.50      -0.22       0.03
      8.57      -0.06      -0.09
      8.34       0.12       0.07
      8.04       0.11       0.19
      8.15       0.15       0.23
      8.38      -0.02       0.09
      8.73      -0.24      -0.31
      9.18      -0.02       0.16
      7.98      -0.26       0.09
      7.97      -0.13       0.11
      7.81       0.03       0.52
      7.56      -0.48       0.56
      7.91      -0.81       0.15
      7.86      -0.48       0.43
      7.91      -0.35       0.17
      8.26      -0.37       0.43
      8.41      -0.46       0.11
      8.41      -0.95      -0.12
      8.57      -1.09      -0.18
      8.40      -0.35       0.16
      8.79      -0.15       0.02
      8.52      -0.27      -0.33
      8.94      -0.06      -0.05
      9.28      -0.15      -0.08
      7.86      -0.50       0.37
      7.48       0.05       0.47
      7.35      -0.20       0.66
      7.25       0.17       0.87
      7.76       0.59       0.12
      7.90      -0.14      -0.56
      8.12       0.49      -0.67
      8.17       0.16      -0.56
      7.32      -0.19       0.42
      7.30       0.19       0.61
      7.82       0.13       0.57
      7.95      -0.05       0.59
      8.20       0.00       0.28
      8.10       0.11       0.25
      8.51       0.19      -0.03
      6.70      -0.09      -0.38
      6.22       0.17       0.15
      6.59      -0.36       0.26
      6.93      -0.40       0.08
      8.07       0.14       0.20
      8.49       1.07       0.46
      8.34       0.80       0.65
      8.49       0.05       0.53
      8.65      -0.03       0.04
      8.60       0.03       0.09
      8.97      -0.22      -0.02
      9.18      -0.03      -0.03
      8.82       0.32      -0.13
      8.94       0.47      -0.15
      8.75       0.24      -0.19
      8.60      -0.44       0.04
      8.27      -0.08       0.20
      8.20       0.04       0.20
      7.95       0.12       0.55
      7.68       0.02       0.26
      7.91      -0.20       0.54
      8.06      -0.89       0.65
      8.52      -0.85       0.29
      8.01      -0.56       0.26
      8.17      -0.44       0.28
      8.38      -0.80       0.15
      8.49      -0.68       0.32
      8.74      -0.47       0.23
      8.79      -0.31       0.00
      9.09      -0.40       0.03
      8.95       0.00      -0.29
      8.83       0.07      -0.23
      8.24      -0.16       0.64
      7.95      -0.16       0.60
      8.52       0.33       0.97
      8.54      -0.32       0.17
      8.95      -0.43      -0.70
      8.45      -0.69      -0.56
      8.58      -0.01      -0.75
      8.65      -0.00      -0.38
      8.59      -0.11       0.37
      8.39      -0.31       0.40
      8.09      -0.11       0.74
      8.17      -0.15       0.70
      8.61      -0.44       0.26
      8.45      -0.69      -0.15
      8.82      -0.95      -0.36
      8.73      -0.73       0.04
      8.56       0.15       0.01
      8.53       0.06      -0.19
      9.12       0.26      -0.30
      9.27       0.30      -0.21
      9.54       0.28       0.02
      9.33       0.93       0.49
      9.36       0.89       0.50
      9.73      -0.01       0.03
      9.27      -0.27       0.02
      9.13      -0.14       0.11
      8.89      -0.37       0.20
      8.72      -0.40      -0.06
      9.22      -0.53      -0.39
      9.23       0.05      -0.37
      8.63      -0.02       0.63
      8.50      -0.19       0.18
      8.68      -0.07      -0.05
      9.17       0.05       0.32
      9.04       0.22       0.41
      8.35       0.02       0.64
      8.53      -0.30      -0.19
      8.79      -0.73      -0.12
      8.91      -0.65       0.02
      9.06      -0.40       0.11
      9.02      -0.56       0.04
      8.89      -0.77      -0.05
      8.98      -0.84       0.12
      9.63      -0.76       0.03
      9.78      -0.85      -0.13
      9.47      -0.78      -0.07
      9.60      -0.50      -0.05
      9.10      -0.14       0.89
      9.46       0.27       0.30
      9.20      -1.59       0.51
      9.18      -1.46      -0.06
      9.70      -1.04      -0.50
      9.18      -0.93      -0.14
      8.48       0.16       0.09
      8.64      -0.26       0.29
      8.29      -0.87       0.31
      8.10      -0.71       0.41
      8.22      -0.38       0.54
      8.73      -0.54       0.52
      9.44      -0.82       0.58
      9.74      -0.40      -0.05
      9.15      -0.89       0.22
      8.66      -1.37       0.28
      8.36      -1.62      -0.03
      8.11      -1.14      -0.21
      7.94      -1.04      -0.25
      8.32      -0.94      -0.25
      8.73      -0.41       0.20
      8.98      -0.17       0.69
      9.05      -0.49       0.61
      9.22      -0.27       0.38
      8.93      -0.24       0.40
      8.75      -0.68       0.33
      8.80      -0.89       0.29
      8.86      -0.86      -0.33
      8.93      -0.67      -0.46
      9.16      -0.15      -0.27
      9.29      -0.15       0.18
      9.69      -0.28       0.11
      9.85       0.08      -0.17
      9.37      -0.19       0.02
      8.88       0.02       0.54
      9.21       0.18       0.30
      9.26       0.10      -0.25
      9.35      -0.34      -0.36
      9.02      -0.25       0.01
      9.03      -0.55       0.18
      9.61      -0.96      -0.01
      9.71      -1.32      -0.22
      9.42      -0.96       0.03
      9.27      -0.59       0.19
      9.36      -0.71       0.03
      9.62      -0.80       0.17
      9.72      -0.67       0.55
      9.57      -0.19       0.69
     10.07       0.26       0.31
      8.73      -0.87       0.46
      9.15      -0.85       0.18
      9.25      -0.29       0.14
      9.31      -0.07       0.08
      9.00      -0.38       0.14
      8.73      -0.29       0.37
      9.08      -0.53       0.55
      9.06      -0.67       0.26
      8.89      -0.84       0.34
      8.88      -0.77       0.42
      9.53      -0.73       0.17
     10.38      -0.97       0.19
     10.01      -0.63       0.50
      8.34      -0.77       0.55
      8.02      -0.90       0.38
      8.41      -1.16      -0.07
      8.88      -1.07      -0.16
      8.82      -1.05      -0.06
      8.66      -1.14      -0.01
      8.64      -0.89       0.15
      8.61      -0.94       0.36
      8.72      -1.11       0.31
      8.85      -1.03       0.43
      8.93      -1.08       0.63
      9.25      -1.15       0.07
      9.06      -0.99      -0.39
      8.75      -0.80      -0.40
      8.58      -0.86      -0.25
      8.67      -0.66      -0.23
      9.06      -0.11      -0.02
      9.47       0.20      -0.07
      9.14       0.08       0.05
      8.96      -0.03       0.04
      9.22      -0.18      -0.06
      9.39      -0.20      -0.21
      9.21      -0.33      -0.24
      9.20      -0.57      -0.28
      9.58      -0.51      -0.24
      9.70      -0.58      -0.16
      9.68      -0.95      -0.17
      9.75      -0.93      -0.07
      9.89      -0.70      -0.28
      9.85      -0.68      -0.68
      9.94      -0.75      -0.16
     10.01      -0.90       0.35
      9.77      -0.83       0.22
      9.79      -0.68       0.11
      9.08      -0.23       0.51
      8.97      -0.05       0.27
      9.09      -0.28       0.35
      9.27      -0.81       0.27
      8.83      -0.60       0.17
      8.85      -0.48       0.45
      9.22      -0.42       0.65
      9.24      -0.81       0.54
      9.21      -0.65       0.29
      9.29      -0.33      -0.03
      9.06      -0.71       0.14
      8.55      -0.94       0.76
      8.61      -0.38       0.94
      9.02       0.05       0.47
      9.33      -0.17       0.07
      9.32      -0.28      -0.07
      9.40      -0.49       0.15
      9.42      -0.44       0.13
      9.47      -0.68       0.04
      9.15      -1.01       0.22
      8.98      -1.02       0.28
      9.19      -1.06       0.21
      9.54      -1.20       0.51
     10.46      -1.08       0.48
     10.80      -1.41       0.13
      9.90      -1.03      -0.02
      9.44      -1.07      -0.22
      9.20      -0.96      -0.25
      9.01      -0.52      -0.07
      8.81      -0.25      -0.25
      8.89      -0.13      -0.09
      9.24       0.02       0.15
      9.33       0.05       0.16
      9.31      -0.03       0.25
      9.49      -0.34       0.20
      9.86      -0.47      -0.15
     10.00      -0.21      -0.39
      9.95      -0.32      -0.21
      9.92      -0.63      -0.11
      9.98      -0.85      -0.16
      9.96      -0.87      -0.25
     10.20      -0.71      -0.21
     10.19      -0.41      -0.16
     10.15      -0.36      -0.39
     10.51      -0.72      -0.24
     10.34      -0.77      -0.19
     10.23      -0.90      -0.20
      9.71      -0.35       0.38
      9.56      -0.21       0.32
      9.05      -0.48       0.33
      9.08      -0.58       0.52
      9.29      -0.58       0.50
      9.14      -0.69       0.35
      9.00      -1.00       0.48
      9.35      -0.69       0.75
      9.80      -0.07       0.67
      9.27      -0.05       0.30
      8.73      -0.63       0.40
      8.87      -0.73       0.75
      9.46      -0.55       0.56
      9.76      -0.31       0.19
     10.02      -0.26       0.15
     10.02      -0.59       0.11
      9.97      -0.55       0.01
      9.99      -0.54       0.29
      9.61      -0.79       0.32
      9.25      -0.86       0.26
      9.62      -1.11       0.20
      9.69      -1.04       0.00
      9.71      -0.92       0.16
      9.78      -1.16       0.24
      9.57      -1.21       0.42
      9.67      -0.93       0.40
      9.86      -0.81       0.05
     10.03      -0.83      -0.10
     10.01      -0.99       0.03
      9.45      -1.03      -0.55
      9.25      -0.99      -0.29
      9.13      -0.66       0.12
      9.05      -0.35       0.18
      9.13      -0.19       0.10
      9.48      -0.30      -0.06
      9.98      -0.43      -0.35
     10.51      -0.61      -0.30
     10.31      -0.66      -0.02
      9.89      -0.40       0.09
      9.96      -0.29       0.14
     10.18      -0.38      -0.10
     10.23      -0.65      -0.11
     10.24      -0.70      -0.12
     10.59      -0.64      -0.15
     10.30      -0.52      -0.09
     10.07      -0.78      -0.06
      9.78      -0.94       0.03
      9.49      -0.54       0.29
      9.26      -0.47       0.39
      9.30      -0.40       0.52
      9.35      -0.24       0.72
      9.41      -0.14       0.66
      9.44      -0.09       0.36
      9.33      -0.05       0.41
      9.22       0.07       0.66
      9.05       0.17       0.65
      9.05       0.10       0.37
      9.21      -0.00       0.23
      9.26       0.13       0.20
      9.50       0.28       0.12
      9.71       0.49       0.16
      9.89       0.46       0.27
     10.11       0.25       0.07
      9.96       0.01      -0.18
      9.96      -0.41       0.11
      9.99      -0.64       0.34
      9.92      -0.53       0.35
      9.79      -0.63       0.19
      9.62      -0.89       0.22
      9.51      -0.87       0.36
      9.53      -0.97       0.10
      9.69      -1.11       0.02
      9.81      -1.34      -0.01
      9.80      -1.53      -0.21
      9.97      -1.35      -0.19
     10.05      -1.04      -0.03
      9.89      -0.89       0.04
      9.72      -0.77      -0.04
      9.63      -0.75      -0.02
      9.61      -0.80       0.10
      9.67      -0.79       0.12
      9.93      -0.76      -0.01
     10.10      -0.81      -0.24
     10.02      -0.67      -0.23
     10.16      -0.49      -0.23
     10.41      -0.49      -0.37
     10.36      -0.55      -0.22
     10.35      -0.75      -0.11
     10.15      -1.00      -0.25
      9.94      -0.96      -0.32
     10.07      -0.63      -0.20
     10.07      -0.80       0.02
      9.94      -1.10       0.13
      9.93      -0.86       0.05
