# vtk DataFile Version 3.0
Low resolution, disturbed wind of YZ Slice at time = 24 seconds.
ASCII
DATASET STRUCTURED_POINTS
DIMENSIONS     1    26    12
ORIGIN     748.00     635.00      15.00
SPACING      30.00      30.00      30.00
POINT_DATA             312
VECTORS DisYZ float
      5.57      -0.02      -0.18
      7.57      -1.05       0.27
      5.88       0.21      -0.07
      4.85       1.03       0.44
      3.37       0.25       0.22
      4.13      -0.33       0.31
      6.68      -0.16      -0.02
      6.58       0.59      -0.05
      6.13      -0.09      -0.26
      4.24       0.06       0.12
      3.90       0.32       0.16
      4.81      -0.11      -0.19
      4.72      -0.37      -0.25
      3.89       0.28       0.42
      3.77       0.57       0.18
      3.98      -0.11      -0.40
      4.76      -0.14       0.26
      4.59       0.03       0.20
      3.60       0.37       0.28
      5.42       0.61      -0.40
      5.63       0.08      -0.30
      4.54      -0.32       0.56
      4.98      -0.28       0.06
      6.09       0.25       0.19
      8.23       0.41      -0.29
      5.05       0.70       0.56
      7.30       0.44      -0.18
      8.02       1.39      -0.00
      8.29       0.71       0.01
      5.88       0.32       0.50
      4.42       0.03       0.78
      6.08       0.27      -0.12
      7.52       0.37      -0.37
      7.38      -0.00      -0.70
      7.78       0.63      -0.53
      7.93       0.77      -0.61
      7.93       0.25       0.01
      7.20       0.56      -0.36
      6.09       0.49      -0.08
      6.01       0.47      -0.38
      6.41      -0.08      -0.24
      6.36       0.52       0.21
      5.57       0.21       0.60
      6.67       0.12      -0.77
      6.58      -0.16      -0.08
      6.41       0.32       0.02
      7.21       0.68       0.13
      5.91       0.27       1.03
      7.68       0.32       0.08
      6.87       0.36       0.20
      7.96       0.39       0.00
      7.72      -0.59       0.35
      8.94       0.88       0.32
      7.71       0.54       0.51
      7.93       0.76       0.77
      7.19       0.27       0.74
      5.57       0.30       0.76
      7.00       1.11       0.01
      7.62       1.06      -0.25
      7.87       0.95      -0.35
      8.54       0.25      -0.56
      8.46       0.51      -0.02
      8.29       0.32      -0.68
      7.97       0.35      -0.43
      6.76       0.25       0.05
      6.89       0.31      -0.18
      7.06      -0.15       0.00
      6.71      -0.68       0.56
      6.53      -0.19       0.62
      7.59      -0.15       0.30
      8.29      -0.47       0.01
      8.69      -0.57       0.05
      7.84      -0.98       0.22
      7.54      -0.32       0.63
      8.07      -0.06       0.65
      9.31       0.92      -0.06
      8.51       0.88       0.19
      8.15       0.90       0.61
      9.11       0.28      -0.10
      8.50       0.81       0.40
      7.73       0.84       1.21
      7.44      -0.24       0.60
      7.86       0.17       0.67
      8.37       0.27       0.12
      8.00       0.26       0.18
      8.07       0.31      -0.04
      7.69       0.71       0.10
      8.31       0.68      -0.18
      8.68       0.32      -0.36
      7.45      -0.02      -0.28
      6.86       0.30       0.32
      6.52      -0.22       0.32
      6.15       0.05       0.07
      7.29      -0.59       1.37
      6.88      -0.51       0.15
      8.46      -0.44      -0.03
      8.24      -0.05       0.38
      8.59      -0.20       0.42
      8.53      -0.39       0.47
      9.38      -0.21       0.14
      9.60       0.16       0.09
      9.92       0.45      -0.25
      9.52       0.65      -0.20
      9.11       0.41      -0.45
      8.52       0.01      -0.29
      8.21       0.33       0.03
      8.04       0.02       0.55
      7.51       0.49       1.03
      7.83       0.34       0.50
      8.35       0.40       0.29
      7.98       0.47       0.33
      8.30       0.53       0.34
      8.26       0.17       0.25
      8.63      -0.22       0.04
      8.43       0.10      -0.13
      7.48      -0.07       0.22
      6.35      -0.36       0.28
      6.74       0.54       0.47
      6.81      -0.18       0.75
      8.33      -0.79       1.40
      8.04       0.26       0.62
      8.01       0.85       0.48
      8.60       0.23       0.66
      8.57      -0.12       0.78
      8.86      -0.06       0.18
      9.15       0.11       0.13
      9.93       0.04      -0.09
      8.90       0.35      -0.31
      8.99       0.26      -0.05
      8.98       0.46      -0.15
      8.19      -0.22      -0.71
      8.03      -0.13       0.05
      7.89      -0.00       0.61
      7.98       0.41       0.73
      8.42       0.59       0.15
      8.40       0.27       0.47
      8.50      -0.42       0.62
      8.68       0.20       0.34
      8.58       0.40       0.83
      8.46      -0.33      -0.33
      8.95      -0.02      -0.52
      7.93      -0.14       0.16
      7.87       0.33      -0.12
      7.83       0.89       0.00
      8.10       0.64       0.86
      7.43       0.42       1.26
      8.65       0.19       0.93
      8.57       0.51       1.26
      9.30       0.20       0.87
      8.90       0.40       0.66
      8.98       0.64      -0.26
     10.01       0.02      -0.02
      9.83      -0.12      -0.49
      9.07      -0.18       0.48
      8.93       0.01      -0.11
      7.92      -0.17      -0.31
      7.71      -0.18      -0.12
      8.21      -0.37       0.23
      7.85      -0.15       0.39
      8.29       0.32       0.39
      8.31       0.03       0.32
      8.43       0.11       0.65
      8.57       0.14       0.38
      8.79       0.34       0.21
      7.77       0.65       0.95
      8.46       0.17      -0.09
      9.30      -0.03      -0.39
      8.69      -0.31      -0.41
      8.68      -0.21      -0.75
      8.70      -0.22       0.37
      8.94      -0.31       1.00
     10.84      -0.06       0.99
      9.13       0.63       1.34
      9.17       0.57       0.53
      9.69       0.68       0.24
      9.11       0.45       0.22
      9.94      -0.10       0.07
     10.14       0.04      -0.18
     10.51      -0.16      -0.33
      9.41      -0.10      -0.08
      8.92       0.09      -0.01
      9.13       0.57       0.05
      7.68      -0.62      -0.10
      7.38      -0.31       0.61
      8.11      -0.59       0.85
      7.86      -0.50       0.57
      8.64      -0.20       0.64
      8.95      -0.25       0.52
      9.41      -0.47      -0.07
      8.34      -0.61       0.07
      8.37      -0.01       0.41
      8.50       0.22       0.50
      9.29      -0.46      -0.02
      8.77      -0.70      -0.30
      9.92      -1.14      -0.67
      9.52      -1.74      -0.20
      9.25      -0.64       0.24
      9.67      -0.06       0.60
      9.66       0.02       1.14
     10.08      -0.51       0.21
      9.49      -0.55       0.26
     10.10      -0.62      -0.08
     10.34      -0.35      -0.40
     10.40      -0.35      -0.19
      9.77      -0.39      -0.14
      9.48      -0.91      -0.31
      9.54      -0.53      -0.35
      9.02      -0.54       0.02
      8.72      -0.96       0.44
      8.81      -0.94       0.18
      8.49      -0.27       0.46
      8.24      -0.56       0.29
      8.86      -0.23       0.18
      9.17      -0.28       0.51
      9.54      -0.38      -0.07
      9.30      -0.23       0.48
      9.28      -0.39       0.41
      9.12      -0.24       0.48
      8.77      -0.06       0.42
      9.28      -0.20       0.22
      9.15      -0.28       0.10
      9.63      -0.77       0.27
      9.30      -0.93       0.20
      9.83      -1.14      -0.08
      9.81      -1.57       0.65
      9.68      -0.97      -0.17
      9.90      -0.73      -0.32
      9.91      -0.70      -0.31
     10.25      -0.37      -0.82
     10.34      -0.64      -0.29
      9.45      -0.83      -0.09
     10.62      -0.90      -0.48
     10.12      -0.72      -0.47
      9.37      -0.47      -0.17
      9.58       0.15      -0.10
      9.02      -0.44       0.12
      9.83      -0.51      -0.22
      9.99       0.00      -0.01
      9.75      -0.01       0.02
      9.00       0.09       0.61
      9.98      -0.11      -0.13
      9.19      -0.69       0.81
      9.53      -0.56       0.56
      9.54      -0.49       0.41
      9.30      -0.33       0.41
      9.01      -0.23       0.33
      9.18      -0.32       0.39
      9.08      -0.30       0.34
      9.30      -0.81       0.73
      9.49      -0.92      -0.14
      9.75      -0.48      -0.02
      9.90      -0.18      -0.53
     10.07      -0.24      -0.56
     10.23      -0.60      -0.61
      9.85      -0.18      -0.62
     10.46      -0.66      -0.40
     10.24      -0.83       0.25
     10.37      -0.94      -0.27
     10.26      -0.77      -0.54
      9.71      -0.51      -0.24
     10.32       0.03      -0.25
     10.43      -0.17      -0.35
     10.40      -0.03      -0.23
     10.10       0.05      -0.21
     10.06       0.19      -0.37
      9.55       0.25       0.52
      9.46       0.09       0.47
      9.38      -0.70       0.65
      9.66      -0.63       0.49
      9.79      -0.76       0.44
      9.34      -0.39       0.45
      9.46      -0.12       0.40
      9.07      -0.45       0.33
      9.23      -0.74       0.22
      9.03      -0.24       0.32
      9.43       0.04      -0.03
      9.78      -0.18      -0.22
      9.63      -0.05      -0.44
      9.80      -0.06      -0.67
     10.06      -0.24      -0.62
      9.94      -0.52      -0.81
     10.42      -0.34      -0.30
     10.57      -0.41       0.05
     10.00      -0.70      -0.37
     10.38      -0.82      -0.32
      9.83      -0.45      -0.21
     10.22      -0.01      -0.08
     10.03      -0.24      -0.36
     10.21      -0.47      -0.06
     10.59      -0.48      -0.09
     10.33      -0.25      -0.25
      9.84      -0.06       0.14
      9.92      -0.35       0.52
      9.41      -0.34       0.51
      9.38      -0.44       0.39
      9.81      -0.20       0.37
      9.69      -0.36       0.31
      9.56      -0.86       0.30
      9.31      -0.39       0.51
      9.05      -0.44       0.53
      9.27      -0.21       0.30
     10.03      -0.16      -0.12
      9.54      -0.23      -0.23
      9.55      -0.11      -0.56
      9.98      -0.14      -0.62
     10.11      -0.29      -0.57
      9.93      -0.25      -0.58
     10.08      -0.26      -0.30
     10.41      -0.92       0.09
     10.34      -0.85      -0.43
     10.51      -0.37      -0.34
     10.43      -0.31      -0.09
