# vtk DataFile Version 3.0
Low resolution, disturbed wind of XY Slice at time = 27 seconds.
ASCII
DATASET STRUCTURED_POINTS
DIMENSIONS    47    26     1
ORIGIN     635.00     635.00      85.00
SPACING      30.00      30.00      30.00
POINT_DATA            1222
VECTORS DisXY float
      8.24      -0.19      -0.01
      8.65      -0.27      -0.18
      8.80      -0.28       0.17
      9.10       0.61       0.03
      8.99       0.42       0.28
      9.07       0.75       0.24
      8.88       0.50       0.72
      9.53       1.02       0.28
      8.62       0.31       0.11
      8.11       0.38       0.81
      8.34       0.60       0.67
      8.17       0.79       0.63
      8.57       0.52       0.55
      8.67       0.09       0.60
      8.65       0.05      -0.10
      8.73       0.25      -0.26
      9.04       0.07      -0.25
      8.97       0.47       0.03
      9.31       0.13      -0.00
      8.84      -0.31      -0.00
      8.52       0.08      -0.23
      9.17       0.68      -0.16
      9.29       1.16       0.05
      8.95       1.36      -0.38
      8.23       0.77       0.53
      7.78       0.33       0.24
      8.48       0.49      -0.13
      8.44       0.41      -0.68
      8.36       0.11       0.02
      8.24      -0.04       0.05
      8.80      -0.38       0.14
      8.57      -0.00      -0.30
      8.31       0.71       0.60
      7.18      -0.25       0.22
      7.88       0.23      -0.29
      7.29       0.21       0.58
      6.86      -0.23       0.46
      6.75      -0.30       0.43
      6.73      -0.75       0.47
      6.82       0.45       0.37
      6.50      -0.08      -0.01
      6.69      -0.06       0.26
      6.89       0.39       0.51
      6.55      -0.23       0.19
      6.99      -0.04       0.30
      7.53       0.40       0.40
      7.99       0.58       0.28
      7.50      -0.21       0.36
      7.80      -0.79       0.32
      8.05      -0.84       0.13
      8.20       0.37      -0.20
      8.05       0.84       0.28
      7.83       0.37       0.79
      7.69       0.27       0.93
      7.71       0.36       0.23
      7.99       0.59       0.10
      8.13       0.43       0.23
      7.83       0.37       0.40
      7.71       0.48       0.40
      7.67       0.25      -0.10
      8.13       0.24      -0.05
      7.95      -0.08      -0.01
      8.06       0.26      -0.21
      7.03      -0.19       0.43
      7.10       0.41       0.85
      7.87       0.20       0.07
      8.74      -0.21      -0.18
      8.77       0.34      -0.11
      8.63       0.19      -0.08
      8.97       0.83      -0.28
      9.31       0.99      -0.43
      8.91       0.67      -0.02
      8.88       0.49      -0.06
      8.29       0.64      -0.26
      8.49       0.75      -0.10
      8.46       0.13       0.21
      8.22       0.07       0.27
      8.12      -0.41       0.37
      8.22       0.11      -0.02
      8.06       1.42       0.28
      8.61      -0.14      -0.08
      8.34       0.46       0.14
      7.74       0.82      -0.33
      8.15       0.40      -0.04
      7.85      -0.40       0.72
      7.38      -0.37       0.02
      7.41       0.09      -0.27
      7.11      -0.48       0.04
      7.61      -0.17      -0.17
      7.60       0.55       0.05
      7.69       0.06      -0.07
      7.01      -0.34       0.78
      6.72       0.51       0.80
      6.62       0.31       0.64
      8.00      -0.46      -0.30
      7.83      -0.71      -0.57
      7.74      -0.94      -0.15
      7.54       0.53       0.30
      7.69       0.89       0.77
      8.06       0.68       0.92
      7.62       0.40       0.17
      7.06       0.25       0.04
      7.25       0.28       0.15
      7.40       0.02       0.21
      7.28       0.10       0.50
      7.34      -0.06       0.31
      7.41       0.19       0.44
      7.62       0.14       0.28
      8.24       0.10      -0.27
      8.24       0.43       0.11
      7.96       0.16       0.26
      8.24      -0.02       0.06
      8.83       0.36      -0.20
      7.88      -0.21       0.14
      7.73       0.12       0.15
      8.31       0.30       0.30
      8.46       0.58      -0.57
      8.49       0.59      -0.19
      8.57       0.69      -0.49
      8.24       0.75      -0.21
      7.83       0.46       0.20
      8.62       0.77       0.63
      9.06       0.38       0.56
      8.22       0.04       0.22
      7.63      -0.28      -0.26
      7.46      -0.09       0.53
      7.98       0.95       0.38
      7.91       0.30      -0.12
      7.58       0.14       0.60
      8.05       1.01      -0.35
      7.63       0.31       0.28
      7.07      -0.17       0.26
      7.00      -0.32       0.26
      7.06      -0.79       0.46
      7.24      -0.65       0.38
      7.42      -0.12      -0.03
      7.82       0.22      -0.80
      8.25       0.05      -0.40
      7.98       0.47      -0.05
      7.35       0.43       0.22
      7.52       0.42      -0.12
      7.17      -0.97      -0.29
      7.27      -0.15      -0.47
      6.66      -0.16       0.60
      6.78      -0.21       0.99
      7.15       0.16       0.66
      7.37       0.17       0.51
      7.02       0.42      -0.50
      6.99      -0.04       0.45
      6.98       0.18       0.73
      7.13      -0.25       0.23
      7.37       0.24       0.40
      7.69       0.10       0.10
      7.87       0.30      -0.50
      7.95       0.22      -0.01
      7.88       0.22       0.15
      7.81       0.49      -0.89
      7.71       0.04       0.05
      7.15      -0.33      -0.13
      7.72       0.03       0.33
      7.30      -0.12       0.34
      7.54      -0.17       0.55
      7.54       0.03       0.50
      7.23       0.23      -0.12
      7.47       0.29      -0.18
      7.54       0.15       0.50
      7.62       0.80       0.82
      7.34       0.59       1.00
      7.39       0.68       0.33
      7.57       0.61       0.09
      8.06       0.21      -0.05
      7.79       0.30      -0.30
      7.58       0.14      -0.33
      7.38       0.64      -0.00
      7.52       0.84       0.52
      7.25       0.00       0.43
      7.08       0.32       0.25
      7.51       0.33       0.59
      7.63       0.45       0.04
      7.40      -0.10       0.25
      7.04      -0.35       0.62
      7.37      -0.45       0.35
      8.06      -0.05      -0.36
      7.66      -0.17      -0.75
      8.34      -0.30      -0.62
      8.00       0.38      -0.09
      7.80       0.73      -0.35
      7.54       0.69       0.19
      8.62      -0.12      -0.30
      7.57      -0.24      -0.14
      6.90       0.40       0.13
      7.17       0.53       0.08
      6.40       0.08       0.63
      6.12       0.32       0.61
      6.52       0.56       0.43
      7.19       0.43      -0.07
      6.82      -0.34      -0.12
      6.38      -0.45       0.22
      6.50       0.31       0.31
      7.08       0.09       0.37
      6.96       0.16       0.62
      7.45       0.78       0.09
      6.71       0.21       0.13
      6.04       0.33       0.57
      6.26       0.05       0.46
      6.47       0.01       0.69
      6.49      -0.89       0.62
      6.68      -0.48      -0.11
      7.12       0.17       0.03
      7.06       0.33       0.46
      6.87       0.11       0.50
      7.53       0.30      -0.06
      7.40       0.41       0.31
      6.97       0.59       0.74
      7.33       0.43      -0.08
      6.97       0.46       0.19
      7.30       0.65       0.24
      7.34       0.39      -0.25
      7.42      -0.13       0.28
      7.55       0.69       0.08
      7.53       0.48       0.05
      7.43       0.99       0.02
      7.70       0.24       0.40
      7.25       0.18      -0.05
      8.15       0.27       0.49
      7.81       0.01      -0.35
      8.10      -0.25      -0.10
      8.11      -0.02       0.05
      7.29       0.15       0.91
      7.14       0.24       0.63
      7.20      -0.30      -0.12
      7.10      -0.53       0.19
      7.25       0.20      -0.22
      7.41       0.49      -0.87
      7.56       0.46       0.27
      7.34       0.04      -0.19
      7.07       0.07       0.29
      7.06       0.05       0.33
      7.27       0.21      -0.11
      7.65       0.90      -0.02
      7.24       0.73       0.05
      6.72       0.07       0.26
      7.01       0.19      -0.03
      7.38       0.04      -0.07
      7.48       0.28      -0.26
      7.44       0.26      -0.20
      8.02      -0.15      -0.63
      7.64      -0.18      -0.44
      7.28       0.24      -0.29
      6.57       0.44      -0.14
      6.55       0.33       0.34
      6.77       0.28       0.12
      7.02       0.02       0.19
      6.97      -0.32       0.38
      6.61      -0.53       0.81
      7.05       0.07       0.54
      6.97       0.20       0.22
      6.98       0.65       0.34
      6.83       0.23       0.48
      6.82       0.35       0.87
      6.80       0.08       0.80
      6.80      -0.10       0.61
      7.15       0.08       0.32
      7.45       0.15       0.30
      7.83       0.04      -0.06
      7.61      -0.13      -0.21
      7.73      -0.11      -0.12
      7.65       0.56      -0.13
      7.84       1.14       0.12
      7.80       0.29      -0.15
      7.88       0.29      -0.26
      7.89       0.04       0.24
      7.30      -0.06      -0.32
      7.13       0.13      -0.14
      7.04       0.15       0.18
      7.33      -0.08       0.06
      7.82      -0.20      -0.28
      7.62      -0.12      -0.33
      7.06       0.09      -0.02
      6.73       0.26       0.46
      6.61       0.60       0.52
      6.65       0.35       0.68
      6.42      -0.06       0.20
      6.97      -0.08       0.37
      7.37       0.15       0.07
      6.95       0.21       0.34
      7.56       0.55      -0.13
      7.88       0.83      -0.11
      7.33       0.54       0.00
      6.96       0.14       0.32
      7.25      -0.18       0.61
      7.33      -0.16       0.62
      7.87      -0.29       0.11
      8.08      -0.35      -0.23
      8.45       0.12      -0.45
      8.24       0.73      -0.95
      8.20       0.58      -0.37
      8.03       0.02      -0.40
      7.92      -0.02      -0.14
      8.14      -0.24      -0.45
      7.73      -0.31       0.22
      7.76      -0.04      -0.17
      7.71      -0.01       0.04
      7.30       0.23       0.39
      7.37       0.34      -0.11
      7.33       0.30       0.17
      7.00       0.53       0.32
      7.03       0.27       0.29
      7.09       0.29       0.23
      7.69       0.24       0.01
      7.66       0.26      -0.42
      8.04       0.25      -0.51
      8.17      -0.35      -0.38
      8.10       0.06      -0.59
      7.72       0.29      -0.16
      8.13       0.48      -0.22
      7.87       0.30      -0.18
      8.00       0.95       0.18
      7.44       0.17       0.09
      7.37       0.13      -0.03
      7.11       0.35       0.09
      7.11       0.08      -0.14
      6.88      -0.16       0.09
      7.35      -0.08       0.39
      7.27      -0.15       0.06
      7.37       0.49       0.19
      7.60       0.05      -0.23
      7.12       0.33       0.10
      6.97       0.25       0.38
      7.88      -0.17       0.17
      7.56       0.12       0.10
      7.60       0.29       0.35
      7.88       0.12      -0.35
      7.93       0.19      -0.04
      7.65       0.90      -0.08
      7.18       0.99      -0.11
      7.68      -0.44       0.31
      8.15      -0.65      -0.04
      7.93      -0.73      -0.14
      7.92      -0.39       0.07
      8.12      -0.19      -0.50
      8.04       0.34       0.14
      8.06       0.46      -0.09
      8.59       0.18      -0.30
      8.68      -0.13      -0.45
      8.30       0.47      -0.16
      8.38      -0.12      -0.54
      7.96      -0.11       0.29
      7.55      -0.14       0.05
      6.88      -0.25       0.49
      7.44       0.45       0.63
      7.65       0.66       0.06
      7.36       0.17      -0.16
      7.17      -0.27       0.27
      7.67      -0.22       0.30
      7.51       0.15       0.20
      7.66       0.34      -0.05
      8.03       0.10      -0.01
      7.90       0.13      -0.22
      7.33       0.00       0.20
      7.13       0.12      -0.37
      7.52       0.11      -0.45
      7.94       0.35      -0.19
      7.48       0.96       0.33
      7.66       0.58       0.06
      7.84       0.03      -0.15
      7.76       0.16      -0.21
      8.32       0.14      -0.26
      7.60       0.06      -0.02
      7.67      -0.56      -0.12
      7.87       0.07      -0.59
      7.42       0.17      -0.02
      7.51       0.42      -0.02
      7.41       0.01      -0.33
      7.44       0.44      -0.08
      7.78       0.18      -0.24
      8.07      -1.09      -0.33
      7.26       0.29       0.13
      7.70       0.14       0.47
      8.36      -0.10       0.00
      8.31       0.37      -0.68
      7.71       0.98       0.09
      7.97       0.05      -0.01
      8.75      -0.39       0.10
      8.36      -1.24       0.04
      7.64      -0.56       0.32
      7.69      -0.24       0.20
      7.92       0.01       0.19
      8.45      -0.11      -0.20
      8.73      -0.08      -0.52
      8.07      -0.00      -0.11
      8.10      -0.15      -0.07
      8.71       0.02      -0.15
      7.92      -0.09      -0.35
      8.03       0.41       0.30
      7.68       0.41      -0.16
      7.52       0.07       0.25
      6.88      -0.14       0.48
      7.64       0.32       0.37
      7.57      -0.19       0.01
      7.20      -0.32       0.14
      7.16      -0.57       0.03
      7.18      -0.37      -0.08
      7.52      -0.27       0.14
      8.07       0.26       0.20
      7.99       0.17      -0.20
      7.69       0.07      -0.21
      7.48      -0.05      -0.36
      7.82       0.03      -0.46
      7.34       0.23       0.14
      7.51       0.23       0.03
      7.57       0.14       0.13
      7.59      -0.33      -0.18
      7.64      -0.19      -0.31
      8.05       0.02      -0.23
      8.26       0.17      -0.45
      7.49      -0.68       0.21
      7.38      -0.38       0.42
      8.04       0.18      -0.40
      7.54       0.36      -0.26
      7.43      -0.17       0.04
      7.19       0.04      -0.09
      7.62       0.28       0.11
      8.80      -0.83      -0.28
      8.82      -0.05      -0.64
      8.85      -0.09      -0.02
      8.77       0.19      -0.10
      8.49       0.19      -0.03
      8.26       0.68      -0.28
      8.12      -0.21      -0.21
      8.43      -0.15      -0.00
      7.61      -0.36       0.33
      7.50      -0.46       0.36
      7.76       0.13       0.16
      7.83      -0.15       0.03
      7.89      -0.55       0.20
      8.07       0.61       0.20
      7.77       0.16       0.17
      7.96       0.19      -0.06
      8.46       0.77       0.17
      7.53       0.15       0.12
      7.54       0.34       0.13
      7.47       0.45       0.20
      7.03      -0.01       0.40
      7.54       0.26       0.21
      7.80       0.11       0.07
      8.17      -0.22       0.25
      7.62      -0.15      -0.10
      7.52      -0.41       0.05
      7.28      -0.78      -0.63
      7.47      -0.89      -0.28
      8.02      -0.01       0.24
      7.74       0.16      -0.05
      7.69       0.44      -0.37
      7.59       0.15      -0.65
      7.21       0.06      -0.22
      7.01       0.05       0.21
      6.91      -0.68       0.10
      7.33      -0.14      -0.16
      7.98       0.16      -0.46
      7.84      -0.20      -0.20
      7.83      -0.09       0.10
      7.56       0.36       0.02
      7.01      -0.47       0.41
      7.46       0.08       0.17
      7.44       0.23      -0.34
      6.85      -0.06       0.09
      7.24      -0.22      -0.17
      7.80      -0.06      -0.09
      7.46       0.19       0.13
      7.69      -0.63      -0.02
      8.40      -0.42      -0.01
      8.77       0.81      -0.20
      8.35       0.53      -0.32
      8.18       0.29      -0.49
      8.54       0.39      -0.58
      8.75       0.34      -0.27
      8.30       0.03      -0.37
      7.79       0.10      -0.13
      7.52      -0.08      -0.28
      7.58       0.17       0.29
      7.41      -0.41      -0.22
      4.25      -0.27       0.93
      4.18       0.30       0.62
      4.75      -0.40       0.51
      5.59       0.10       0.12
      5.57       0.83       0.31
      5.63       0.81       0.24
      5.79       0.34       0.28
      7.50       0.45       0.28
      7.69       0.02       0.08
      7.19       0.07       0.42
      7.49      -0.01       0.47
      7.68      -0.29      -0.16
      7.64      -0.14       0.35
      7.55      -0.55      -0.11
      7.61      -0.21      -0.44
      7.36      -0.04       0.52
      7.29       0.35       0.60
      6.85       0.70       0.32
      7.40       0.27      -0.14
      7.68       0.50      -0.08
      7.75       0.17      -0.37
      7.10       0.32       0.24
      6.56      -0.35      -0.13
      6.48      -0.41       0.33
      6.51      -0.24      -0.49
      6.86       0.09      -0.08
      7.17       0.38      -0.18
      6.99       0.46      -0.13
      7.21       0.12      -0.28
      6.74       0.34       0.60
      7.51      -0.08       0.06
      8.24       0.20      -0.43
      7.49       0.59       0.03
      7.09       0.23       0.29
      7.43       0.40       0.41
      6.62      -0.36       0.18
      6.65       0.09       1.00
      6.92       0.30       0.26
      7.01       0.12      -0.06
      7.70       0.04      -0.35
      7.81       0.34      -0.43
      7.95      -0.07      -0.32
      8.07       0.27      -0.35
      7.61       0.18      -0.14
      7.37       0.18       0.26
      7.58      -0.19       0.24
      7.23      -0.39       0.05
      4.36       0.03       0.52
      2.72       0.02       0.82
      2.85       0.34       0.58
      2.66       0.41       0.77
      2.55       0.64       0.74
      3.31       0.74       0.66
      3.85       0.21       0.65
      7.72       0.28       0.55
      7.56       0.10       0.49
      7.67       0.32       0.64
      7.60      -0.03       0.42
      7.48      -0.26       0.09
      7.57      -0.32       0.29
      7.62       0.05       0.01
      7.56      -0.43      -0.36
      7.10       0.23      -0.26
      7.04       0.32       0.80
      6.83       0.16       0.32
      7.13       0.22       0.06
      6.94       0.24      -0.10
      7.43       0.18      -0.06
      7.03       0.26       0.66
      7.63       0.32      -0.10
      6.96       0.01       0.39
      6.31      -0.67       0.25
      6.71      -0.52       0.34
      6.72      -0.38      -0.15
      7.26      -0.41       0.37
      6.44       0.46       0.10
      6.75      -0.14       0.21
      7.26       0.12       0.48
      7.51       0.30      -0.53
      7.06       0.23       0.07
      7.04       0.38       0.65
      7.40       0.02       0.46
      7.81       0.11       0.18
      6.77       0.12       0.81
      6.64      -0.02       0.50
      6.74       0.14       0.41
      6.81       0.24       0.13
      6.68       0.25       0.29
      6.51       0.24       0.06
      6.61      -0.15       0.33
      6.51      -0.02       0.33
      6.65      -0.12       0.52
      6.71      -0.32       0.13
      6.73      -0.13       0.04
      4.52      -0.20       0.59
      3.97      -0.27       0.76
      4.00       0.25       0.82
      4.28       0.43       0.76
      4.43       0.32       0.79
      4.06       0.16       0.68
      4.56      -0.07       0.59
      7.65       0.08       0.20
      7.57       0.30       0.28
      7.56      -0.16       0.16
      7.56      -0.35       0.15
      7.74      -0.03       0.05
      7.78      -0.48       0.36
      8.13      -0.07      -0.24
      7.85       0.45      -0.55
      6.59       0.30       0.70
      6.54       0.26       0.62
      7.12      -0.26       0.40
      7.49      -0.11      -0.07
      7.92      -0.19      -0.09
      7.69       0.50      -0.10
      7.02       0.40      -0.04
      6.72      -0.11       0.17
      6.50       0.33       0.62
      6.90      -0.41       0.03
      7.39      -1.13       0.26
      7.92      -0.57      -0.48
      7.56      -0.42      -0.70
      7.19       0.58       0.36
      7.45       0.49      -0.31
      7.54       0.45      -0.04
      7.48       0.10      -0.39
      7.33       0.67       0.20
      7.71      -0.12      -0.37
      7.26       0.12       0.09
      6.88      -0.61       0.18
      7.31      -0.21       0.09
      7.36       0.06       0.41
      6.89       0.21       0.42
      7.03       0.38       0.32
      6.47       0.19       0.26
      6.81       0.17       0.21
      6.70      -0.51       0.56
      6.96      -0.61       0.23
      7.20      -0.68      -0.15
      7.48      -0.59      -0.31
      7.66      -0.65      -0.48
      5.21      -0.67      -0.09
      3.87      -0.04       0.48
      3.64       0.22       0.39
      3.65       0.15       0.46
      3.83       0.05       0.67
      4.26       0.04       0.48
      4.19       0.12       0.50
      8.20       0.18      -0.28
      7.93       0.57      -0.22
      7.96       0.31      -0.37
      7.65      -0.19       0.40
      7.65      -0.60       0.29
      7.60      -0.34       0.75
      7.40       0.31       0.21
      7.37       0.57      -0.26
      7.06       0.82       0.04
      7.35      -0.20      -0.26
      7.20      -0.14      -0.39
      6.82      -0.23       0.70
      7.13      -0.46       0.44
      7.14       0.26       0.39
      7.37       0.44       0.47
      7.29       0.71       0.27
      7.92       0.43      -0.17
      7.49      -0.00      -0.54
      7.37      -0.92      -0.36
      6.48      -0.85       0.06
      5.78      -0.68       0.92
      6.84      -0.12       0.22
      7.42       0.25       0.04
      7.35       0.52      -0.11
      7.36      -0.19      -0.53
      7.57      -0.23      -0.40
      7.53       0.18      -0.43
      7.39      -0.21      -0.31
      6.45      -0.57       0.62
      6.33      -0.45       0.54
      6.71      -0.24       0.24
      6.54      -0.10       0.10
      6.63       0.06       0.22
      6.64       0.04       0.03
      7.04      -0.37      -0.22
      6.75      -0.04      -0.41
      7.28      -0.57      -0.44
      6.80      -0.35      -0.05
      6.88      -0.45       0.37
      7.12      -0.25       0.15
      4.14      -0.02       0.23
      3.06      -0.03       0.32
      3.62      -0.41       0.49
      4.46      -0.09       0.30
      5.02      -0.07       0.17
      4.89       0.11       0.29
      4.82       0.26       0.14
      7.99      -0.13      -0.60
      8.07      -0.40      -0.33
      8.54       0.30      -0.52
      8.37      -0.32      -0.23
      8.14       0.02      -0.17
      7.37       0.47       0.26
      7.55       0.19       0.27
      7.77       0.02       0.41
      8.35       0.11      -0.57
      7.94      -0.33      -0.35
      7.24      -0.56      -0.30
      7.90       0.04       0.13
      6.91       0.32       0.55
      6.41       0.22       0.55
      6.71       0.12       0.34
      7.28       0.55       0.29
      7.61      -0.42      -0.39
      7.86      -0.23      -0.78
      6.61       0.22      -0.31
      7.30       0.38      -0.18
      7.39      -0.29       0.02
      7.03      -0.47       0.30
      6.64       0.07       0.85
      7.09       0.01      -0.02
      7.15      -0.24       0.12
      6.92       0.22       0.06
      6.83       0.13       0.28
      6.64       0.06       0.21
      6.23      -0.19       0.59
      6.54      -0.48       0.67
      6.51      -1.14       1.00
      7.36      -0.72       0.42
      7.20      -0.85      -0.15
      7.22      -0.53       0.86
      6.60      -0.28       0.37
      6.86      -0.32      -0.78
      6.65       0.40      -0.25
      7.74      -0.47       0.03
      7.48      -0.16      -0.30
      7.59      -0.22       0.14
      7.11      -0.11       0.17
      7.29      -0.71       0.53
      7.46      -0.51       0.27
      7.53      -0.69      -0.00
      7.40      -0.10      -0.36
      7.23      -0.36      -0.50
      7.53      -0.06      -0.54
      7.75      -0.35      -0.28
      7.12      -0.32      -0.10
      6.52      -0.27       0.07
      6.70       0.32       0.28
      6.81      -0.32      -0.11
      7.36      -0.36      -0.25
      7.89      -0.21      -0.04
      8.13       0.03      -0.44
      7.63       0.01      -0.55
      7.43       0.44       0.05
      7.61      -0.58       0.10
      7.11       0.72       0.66
      7.34       0.05       0.13
      7.43      -0.64      -0.17
      7.62      -0.44       0.15
      7.74      -0.32       0.59
      8.08      -0.35       0.19
      8.12      -0.54      -0.08
      8.20      -0.09      -0.85
      7.85       0.37      -0.46
      7.10       0.33       0.19
      7.60       0.60      -0.39
      7.14      -0.00      -0.07
      6.93       0.35       0.74
      6.54       0.23       0.72
      7.08       0.11       0.49
      6.79       0.03       0.05
      6.54       0.21      -0.12
      8.12      -0.19       0.15
      8.18      -0.37      -0.20
      7.77      -0.20       0.07
      8.04      -0.74       0.34
      7.77      -0.41       0.53
      6.34      -0.25       0.45
      6.93      -0.14      -0.61
      6.76      -0.17      -0.82
      7.23      -0.13      -1.13
      7.86      -0.05      -1.72
      7.64      -0.26      -0.35
      8.02      -0.63      -0.02
      7.71      -0.20       0.09
      7.88      -0.93       0.16
      7.84      -0.46      -0.14
      6.79      -0.34       0.56
      7.16      -1.01       0.12
      7.72      -0.26      -0.28
      7.57      -0.49      -0.11
      6.95       0.04       0.15
      7.08      -0.22       0.07
      6.46      -0.18       0.50
      6.52      -0.35       0.43
      6.65       0.06       0.61
      6.87      -0.11       0.05
      6.32      -0.14      -0.22
      6.79       0.18       0.53
      6.40       0.75       0.39
      7.32      -0.24      -0.24
      7.66      -0.17       0.08
      8.14      -0.25       0.66
      8.28       0.07       0.10
      7.15      -0.32      -0.03
      6.80      -0.32       0.12
      7.00      -0.95       0.65
      6.98      -0.58       0.50
      6.81      -0.43       0.62
      6.69       0.20       0.43
      6.88       0.47       0.29
      7.75       0.61       0.64
      7.69       0.27      -0.48
      7.85       0.54       0.12
      7.34       0.58       0.00
      7.58       0.28      -0.30
      7.12       0.65      -0.29
      7.39       0.32      -0.06
      7.35       0.45      -0.27
      8.49       0.03      -0.38
      9.15      -0.23       0.00
      8.37      -0.15      -0.31
      8.03      -0.38      -0.52
      7.71       0.25       0.16
      7.89      -0.38       0.26
      8.30      -0.02       0.07
      7.91      -0.05      -0.53
      7.96      -0.35      -0.59
      8.10      -0.02      -0.65
      8.18      -0.04      -0.77
      8.32       0.21      -0.66
      9.06      -0.49      -0.61
      8.35      -0.43      -0.88
      8.04      -0.08       0.02
      7.39       0.04       0.02
      7.67      -0.64      -0.66
      7.63      -1.01      -0.50
      7.25      -0.41       0.13
      7.21      -0.08      -0.23
      7.31       0.36       0.07
      6.87       0.23       0.09
      6.89      -0.18       0.03
      6.83       0.02       0.36
      7.67      -0.67       0.19
      7.16      -0.31       0.48
      7.12       0.22       0.05
      7.21      -0.41       0.67
      7.82      -1.03      -0.11
      7.91      -0.64      -0.33
      8.27      -0.67      -0.77
      8.30      -0.20       0.12
      8.29      -0.62      -0.22
      8.19      -0.40      -0.54
      6.95      -0.31      -0.25
      7.20      -0.88       1.00
      6.80       0.17       0.77
      7.16      -0.67       0.54
      6.86      -0.34       0.46
      7.37      -0.20       0.29
      7.70       0.10      -0.35
      7.19       0.34       0.21
      7.31       0.72       0.40
      7.34       0.50      -0.00
      7.27       0.53      -0.06
      7.92       0.71      -0.48
      7.51       0.45      -0.48
      8.25      -0.13       0.09
      8.19      -0.29       0.34
      7.83       0.45       0.17
      8.01      -0.18       0.07
      8.63      -0.38       0.16
      7.74      -0.43       0.59
      7.30      -0.52       0.61
      7.70      -0.12      -0.62
      7.94      -0.18      -0.95
      7.30       0.08       0.56
      7.50      -0.05      -0.65
      7.61      -0.50      -0.44
      7.90      -0.16      -0.49
      8.61      -0.17      -0.89
      8.33       0.08       0.13
      8.57      -0.36       0.20
      7.65      -0.71      -0.22
      7.87      -0.34      -0.25
      7.38       0.11      -0.19
      7.29      -0.25       0.40
      7.47       0.19       0.03
      7.30       0.22       0.41
      7.15      -0.34       0.99
      7.30      -1.19       0.52
      8.36      -1.25      -0.23
      7.74      -0.34       0.31
      7.95       0.04       0.01
      7.90      -0.41      -0.21
      7.84      -0.56       0.14
      7.80      -1.05      -0.29
      8.04      -1.24       0.33
      8.07      -0.29      -0.42
      8.24      -0.29      -0.74
      8.35       0.15      -0.91
      8.66      -0.11      -0.84
      8.23      -0.07      -0.68
      7.70      -0.24       0.59
      7.39      -0.31       0.43
      7.35      -0.54       0.02
      7.55      -0.22      -0.05
      7.23       0.32       0.46
      7.66       0.28       0.44
      7.49       0.19       0.31
      7.93       0.17       0.41
      7.80       0.32      -0.31
      8.10       0.19      -0.18
      8.20       0.06      -0.33
      8.55      -0.33      -0.69
      8.82      -0.16      -0.22
      8.54      -0.03      -0.03
      8.79      -0.30      -0.03
      8.21      -0.17       0.20
      8.44      -0.50      -0.00
      7.88      -0.21       0.34