# vtk DataFile Version 3.0
Low resolution, disturbed wind of XY Slice at time = 36 seconds.
ASCII
DATASET STRUCTURED_POINTS
DIMENSIONS    47    26     1
ORIGIN     635.00     635.00      85.00
SPACING      30.00      30.00      30.00
POINT_DATA            1222
VECTORS DisXY float
      8.92       0.21       0.68
      8.87      -0.18       0.60
      8.23      -0.31       0.08
      8.54      -0.20      -0.20
      8.66      -0.57       0.18
      8.99       0.39       0.01
      9.01       0.34       0.32
      9.07       0.73      -0.06
      8.72       0.25       0.82
      9.13       0.95       0.42
      9.13       0.45      -0.06
      8.28       0.31       0.51
      7.90       0.28       0.80
      7.76       0.54       0.90
      8.41       0.70       0.43
      8.65       0.26       0.62
      8.62       0.10       0.12
      8.59       0.13      -0.12
      8.92      -0.07      -0.25
      8.79       0.34      -0.16
      9.10       0.57       0.17
      9.11      -0.08       0.01
      8.62      -0.27       0.01
      8.91       0.37      -0.34
      8.87       1.17       0.59
      9.37       0.90      -0.61
      8.41       1.04       0.11
      7.48       0.44       0.51
      8.19       0.53       0.34
      8.46       0.45      -0.67
      8.54       0.27      -0.25
      8.11       0.03      -0.05
      8.74      -0.12       0.24
      8.52      -0.32      -0.31
      8.59       0.74       0.57
      7.45      -0.14       0.32
      7.66       0.06      -0.19
      7.42       0.16       0.50
      6.95       0.06       0.31
      6.77      -0.32       0.51
      6.84      -0.71       0.36
      6.73       0.33       0.29
      6.66      -0.24      -0.23
      6.73      -0.04       0.38
      6.57       0.12       0.37
      6.58      -0.23       0.16
      7.20       0.03       0.24
      7.32      -0.72       0.16
      7.89      -0.15       0.22
      7.56      -0.11       0.39
      7.71      -0.81       0.07
      7.88      -1.14       0.05
      8.23      -0.05      -0.41
      8.11       0.74       0.32
      7.71       0.54       0.78
      7.62       0.11       0.95
      7.57       0.31       0.50
      7.74       0.46       0.04
      8.04       0.59       0.39
      7.99       0.35       0.31
      7.90       0.59       0.58
      7.65       0.27       0.03
      7.99       0.38      -0.16
      7.91      -0.10       0.10
      8.03       0.19      -0.35
      7.26      -0.41       0.28
      7.24       0.39       0.78
      7.56       0.48       0.25
      8.44      -0.21      -0.17
      8.92       0.19      -0.07
      8.47       0.17      -0.07
      8.76       0.42      -0.01
      8.87       1.34      -0.25
      9.00       0.86      -0.20
      9.04       0.59       0.12
      8.49       0.55      -0.28
      8.21       0.74      -0.03
      8.49       0.30       0.17
      8.31       0.09       0.25
      8.11      -0.30       0.38
      8.26      -0.36      -0.18
      7.98       1.35       0.49
      8.38       0.19       0.03
      8.69       0.15       0.16
      7.60       0.89      -0.18
      7.94       0.53      -0.14
      8.03      -0.29       0.36
      7.53      -0.39       0.06
      7.46       0.10      -0.19
      7.18      -0.56      -0.01
      7.61      -0.20      -0.17
      7.66       0.51      -0.17
      7.66      -0.06      -0.11
      7.03      -0.16       0.59
      7.91      -1.04      -0.50
      8.08      -0.55       0.06
      8.08      -0.32      -0.23
      7.96      -0.56      -0.56
      7.72      -1.03       0.01
      7.73       0.23       0.21
      7.71       0.98       0.29
      8.12       0.71       0.87
      7.70       0.36       0.42
      7.20       0.17      -0.01
      7.27       0.29       0.08
      7.33       0.27       0.15
      7.40       0.23       0.51
      7.40       0.03       0.34
      7.52       0.16       0.43
      7.46       0.13       0.42
      7.93      -0.11      -0.16
      8.17       0.41      -0.09
      8.00       0.24       0.31
      8.00       0.04       0.21
      8.90       0.30      -0.16
      8.23      -0.09       0.11
      7.80      -0.05       0.08
      8.21       0.30       0.43
      8.54       0.52      -0.26
      8.53       0.52      -0.56
      8.52       0.94      -0.20
      8.74       0.60      -0.47
      7.91       0.50      -0.05
      8.07       1.04       0.48
      8.99       0.67       0.46
      8.73       0.19       0.59
      7.87      -0.31      -0.21
      7.58      -0.34       0.39
      7.93       0.82       0.36
      8.02       0.49      -0.09
      7.62       0.07       0.70
      8.28       0.82      -0.29
      7.81       0.51       0.19
      7.08      -0.11       0.34
      7.17      -0.27       0.22
      7.25      -0.70       0.49
      7.25      -0.70       0.43
      7.33      -0.08       0.05
      7.70       0.25      -0.73
      7.88       0.14      -0.28
      8.02       0.53      -0.07
      7.37      -0.32      -0.10
      7.12      -0.70      -0.23
      7.12      -0.94      -0.07
      7.00      -0.33      -0.42
      6.82      -0.46       0.64
      6.98      -0.22       0.88
      6.99      -0.36       0.85
      7.34       0.18       0.36
      6.98       0.33      -0.32
      7.13       0.15       0.47
      7.00       0.18       0.71
      7.19      -0.12       0.28
      7.34       0.21       0.49
      7.62       0.14       0.18
      7.67       0.29      -0.60
      7.89       0.12      -0.31
      8.03       0.12       0.40
      7.78       0.56      -0.80
      7.77       0.18      -0.14
      7.12      -0.31       0.05
      7.64      -0.09       0.19
      7.30      -0.07       0.47
      7.67      -0.29       0.51
      7.64      -0.08       0.49
      7.17       0.40      -0.12
      7.36       0.24      -0.17
      7.48      -0.03       0.35
      8.07       0.69       0.79
      7.79       0.57       1.04
      7.49       0.68       0.63
      7.53       0.57       0.37
      7.91       0.18       0.01
      7.85       0.53      -0.32
      7.57       0.01      -0.23
      7.62       0.56      -0.16
      7.57       0.88       0.30
      7.26      -0.04       0.40
      7.05       0.35       0.21
      7.53       0.41       0.45
      7.65       0.46       0.11
      7.25      -0.00       0.13
      7.23      -0.37       0.68
      7.37      -0.34       0.43
      8.09      -0.12      -0.31
      7.53      -0.18      -0.60
      8.08      -0.35      -0.73
      8.14       0.37      -0.37
      8.13      -0.70       0.19
      8.32      -0.34      -0.07
      8.92      -0.02      -0.58
      7.74      -0.30      -0.31
      6.86       0.50       0.67
      6.60       0.29      -0.05
      6.22      -0.30       0.65
      6.07       0.62       0.46
      6.34       0.52       0.65
      6.88       0.37       0.05
      6.88      -0.45      -0.17
      6.41      -0.25       0.25
      6.57       0.16       0.32
      7.05       0.07       0.29
      7.01       0.26       0.60
      7.61       0.69       0.04
      6.51       0.18       0.37
      6.17       0.23       0.65
      6.37       0.10       0.34
      6.64       0.20       0.97
      6.50      -0.71       0.60
      6.63      -0.49      -0.17
      7.02       0.11       0.35
      6.90       0.15       0.28
      6.74       0.06       0.65
      7.57       0.22      -0.27
      7.39       0.36       0.27
      6.89       0.53       0.65
      7.25       0.45      -0.02
      7.01       0.39       0.25
      7.38       0.80       0.22
      7.17       0.48      -0.15
      7.46      -0.06       0.25
      7.55       0.55       0.08
      7.54       0.44      -0.00
      7.50       0.87      -0.01
      7.74       0.31       0.51
      7.29       0.12       0.10
      7.91       0.17       0.58
      7.78       0.12      -0.15
      7.99      -0.36      -0.10
      8.26       0.01      -0.15
      7.26       0.08       1.00
      6.85       0.04       0.49
      7.27      -0.32      -0.11
      6.93      -0.59       0.20
      7.43       0.16       0.15
      7.22      -0.97       0.45
      7.10      -0.31       0.88
      7.22       0.00      -0.07
      6.95       0.04       0.37
      7.09       0.16       0.27
      7.26       0.21      -0.04
      7.61       0.92      -0.22
      7.10       0.50      -0.04
      6.76       0.11       0.28
      6.96       0.09      -0.02
      7.37      -0.07      -0.08
      7.47       0.30      -0.18
      7.36       0.25      -0.21
      7.84      -0.23      -0.56
      7.97      -0.35      -0.54
      7.57       0.13      -0.39
      7.16       0.52      -0.44
      6.83       0.37       0.28
      6.86       0.35       0.07
      6.97       0.06       0.22
      6.74      -0.32       0.41
      6.65      -0.57       0.78
      7.07      -0.01       0.58
      7.12       0.19       0.20
      6.87       0.41       0.40
      6.94       0.26       0.54
      6.84       0.14       0.80
      6.48       0.06       0.90
      6.56      -0.16       0.62
      7.02       0.11       0.32
      7.32       0.30       0.38
      7.73       0.13      -0.05
      7.69      -0.06      -0.23
      7.75      -0.12      -0.12
      7.69       0.35      -0.09
      7.78       1.06       0.04
      7.78       0.43      -0.14
      7.89       0.26      -0.22
      8.00       0.06       0.22
      7.36      -0.01      -0.25
      7.17       0.11      -0.23
      7.09       0.10       0.24
      7.33      -0.10       0.06
      7.82      -0.35      -0.07
      7.65      -0.16      -0.37
      7.11      -0.02      -0.12
      6.77       0.26       0.34
      7.01      -0.31       0.47
      6.61      -0.52       0.54
      6.46      -0.15       0.37
      6.97      -0.00       0.39
      7.34      -0.06       0.16
      7.14       0.07       0.16
      7.56       0.67      -0.22
      7.84       0.83      -0.41
      7.42       0.60       0.16
      6.95       0.21       0.23
      7.10      -0.44       0.24
      7.44      -0.25       0.71
      7.54      -0.24       0.52
      7.84      -0.36       0.25
      8.28      -0.22      -0.39
      8.41       0.39      -0.64
      7.92       1.17       0.19
      7.61      -0.01      -0.47
      7.86      -0.14      -0.24
      8.22      -0.17      -0.20
      8.18      -0.30      -0.25
      7.69      -0.21      -0.09
      7.76       0.04       0.01
      7.15       0.53       0.35
      7.19       0.57       0.06
      7.22       0.19       0.01
      7.03       0.47       0.40
      6.94       0.20       0.32
      6.68       0.31       0.44
      7.42       0.31       0.13
      7.60       0.28      -0.44
      7.89       0.20      -0.57
      7.98      -0.26      -0.59
      8.25       0.07      -0.62
      7.65       0.39      -0.12
      7.86       0.55      -0.21
      7.96       0.28      -0.31
      7.90       0.86       0.10
      7.42       0.31       0.23
      7.28       0.08       0.06
      7.24       0.53      -0.11
      7.13       0.03      -0.10
      7.02      -0.18       0.11
      7.29      -0.17       0.27
      7.26      -0.18       0.11
      7.33       0.26       0.13
      7.63      -0.08      -0.18
      8.21      -0.96      -0.06
      7.70      -0.89      -0.10
      7.82      -0.26       0.15
      7.69       0.17       0.18
      7.62       0.22       0.47
      7.83       0.45      -0.11
      8.09       0.09      -0.23
      7.83       0.64      -0.13
      7.22       0.82       0.22
      7.52      -0.05       0.53
      7.94      -1.04      -0.06
      7.76      -0.68      -0.39
      7.93      -0.54       0.18
      8.00      -0.05      -0.44
      8.13       0.09      -0.01
      7.94       0.28      -0.12
      8.29       0.22      -0.41
      8.75      -0.05      -0.27
      8.23       0.09      -0.36
      7.97      -0.07      -0.35
      8.03      -0.25       0.37
      7.47      -0.09       0.27
      7.08      -0.52       0.36
      7.26       0.14       0.77
      7.74       0.73       0.09
      7.47       0.52      -0.33
      7.19      -0.22       0.22
      7.49      -0.33       0.34
      7.58       0.09       0.20
      7.60       0.21       0.01
      7.91       0.18      -0.00
      7.62       0.36      -0.32
      7.16      -0.06       0.03
      7.10      -0.05      -0.23
      7.52       0.14      -0.48
      7.60       0.30      -0.46
      7.83       0.68       0.22
      7.58       0.84       0.01
      7.96       0.16      -0.08
      7.80       0.32      -0.35
      8.42      -0.31      -0.39
      7.81       0.27      -0.02
      7.62      -0.86      -0.12
      7.89      -0.04      -0.33
      7.31       0.19      -0.08
      7.38       0.33       0.27
      7.54       0.00      -0.24
      8.06      -0.56       0.38
      8.31      -0.94       0.14
      8.24      -0.98      -0.24
      7.90      -0.32      -0.10
      7.50       0.30       0.26
      8.04       0.35       0.26
      7.96       0.14      -0.59
      7.49       0.65      -0.25
      7.62       0.45      -0.05
      8.21      -0.33      -0.00
      8.17      -1.16       0.01
      7.60      -0.67       0.00
      7.75      -0.25       0.06
      7.68       0.01       0.38
      8.26       0.14      -0.04
      8.26       0.19      -0.05
      7.99      -0.11       0.12
      7.94       0.01      -0.25
      8.22       0.28      -0.22
      7.98       0.26      -0.30
      7.72       0.34       0.05
      7.95       0.49      -0.10
      7.69       0.19       0.15
      6.90      -0.37       0.47
      7.51       0.43       0.48
      7.60       0.11       0.01
      7.42      -0.19       0.15
      7.07      -0.51       0.13
      6.85      -0.43      -0.06
      7.42      -0.58       0.06
      8.05      -0.13      -0.00
      8.00       0.27      -0.15
      7.67       0.14      -0.22
      7.47      -0.13      -0.13
      7.69       0.17      -0.54
      7.38       0.39       0.13
      7.61       0.25      -0.03
      7.81       0.35       0.02
      7.57      -0.04      -0.06
      7.75      -0.30      -0.08
      7.87      -0.07      -0.17
      8.34       0.16      -0.22
      7.62      -0.74       0.36
      7.70      -0.40       0.35
      8.13       0.35      -0.45
      7.78       0.27      -0.08
      7.47      -0.04      -0.24
      8.26      -0.87      -0.48
      8.88      -1.18      -0.67
      8.93      -1.01      -0.65
      8.49      -0.50      -0.55
      8.97       0.18      -0.35
      8.98       0.23      -0.03
      8.46       0.51      -0.25
      7.32       0.93      -0.06
      8.05       0.33      -0.22
      7.89      -0.22       0.12
      8.69      -0.25      -0.32
      7.58      -0.59       0.60
      7.61      -0.19       0.17
      7.82       0.09      -0.06
      8.21      -0.39       0.06
      7.85      -0.03       0.15
      7.76       0.19       0.32
      8.10      -0.10       0.02
      7.89       0.63       0.10
      7.32       0.37       0.22
      7.43       0.45       0.20
      7.56       0.37       0.00
      7.16      -0.10       0.68
      7.25       0.40       0.63
      7.58       0.14      -0.06
      7.47      -0.57       0.36
      7.77      -0.13      -0.13
      7.75      -0.46       0.09
      7.93      -0.64      -0.30
      7.56      -0.73       0.06
      8.06      -0.44      -0.17
      7.84       0.17      -0.23
      7.59       0.30      -0.01
      7.43       0.35      -0.66
      7.34       0.16      -0.36
      7.07       0.22       0.08
      6.96      -0.52       0.21
      7.27      -0.30      -0.08
      7.98       0.13      -0.69
      7.77       0.02      -0.26
      7.83      -0.24      -0.05
      7.74      -0.05      -0.01
      7.07      -0.22       0.57
      7.15       0.19       0.40
      7.80       0.26      -0.50
      6.96       0.05       0.14
      7.14      -0.46      -0.14
      7.63      -0.53       0.11
      7.08      -0.41       0.51
      7.01      -0.70      -0.14
      7.92      -0.61      -0.14
      8.00       0.73       0.14
      7.75       0.45       0.15
      8.07       0.23      -0.51
      8.22       0.45      -0.42
      8.37       0.07      -0.70
      8.56       0.66       0.08
      7.49       0.14       0.03
      7.54      -0.12      -0.33
      4.82       0.26       0.25
      4.01      -0.23      -0.21
      4.42      -0.39       0.64
      4.70       0.05       0.40
      4.82      -0.29       0.45
      5.65      -0.12      -0.07
      5.92       0.82       0.47
      6.02       0.42       0.37
      5.91       0.42       0.22
      7.64       0.53       0.04
      7.82       0.04       0.22
      7.45       0.19       0.42
      7.48      -0.11       0.39
      7.64      -0.36       0.05
      7.74      -0.14       0.16
      7.17      -0.51       0.21
      7.49      -0.36      -0.44
      7.39      -0.12       0.43
      7.30      -0.02       0.69
      7.42       0.36       0.33
      7.09       0.33      -0.32
      7.48       0.36      -0.05
      7.60       0.38      -0.34
      7.17       0.35       0.14
      6.35      -0.09       0.07
      6.29      -0.59       0.32
      6.50      -0.22      -0.44
      6.98       0.22      -0.07
      6.95       0.29       0.15
      7.46       0.29      -0.15
      7.01       0.20       0.27
      6.63       0.28       0.67
      7.37      -0.11       0.14
      7.93       0.39      -0.52
      7.94       0.30      -0.18
      6.90      -0.67      -0.17
      7.23      -0.33       0.15
      6.99      -0.37       0.21
      6.50       0.04       0.93
      7.07       0.52       0.50
      6.87       0.14      -0.31
      7.40      -0.13      -0.49
      7.67       0.30      -0.43
      7.62      -0.37       0.10
      7.58      -0.30      -0.09
      7.96       0.02      -0.11
      7.26       0.20       0.24
      4.95       0.07       0.24
      3.10      -0.37       0.50
      2.83      -0.13       0.72
      2.93       0.18       0.81
      3.00       0.00       0.79
      2.70       0.49       0.83
      3.06       0.81       0.39
      3.50       0.82       0.65
      3.93       0.39       0.53
      7.67       0.23       0.51
      7.83      -0.02       0.37
      7.50       0.17       0.73
      7.21      -0.13       0.45
      7.91      -0.22       0.03
      7.75      -0.60       0.12
      7.72       0.06       0.04
      7.36      -0.49      -0.51
      7.38       0.23      -0.54
      6.80       0.67       0.81
      7.08       0.33       0.42
      7.14       0.18       0.18
      6.79       0.13      -0.16
      7.26       0.21      -0.11
      7.58       0.66       0.35
      7.51       0.19      -0.22
      7.03       0.01       0.26
      6.50      -0.78       0.15
      6.61      -0.34       0.36
      6.99      -0.24      -0.07
      7.02      -0.35       0.13
      6.82       0.55       0.23
      6.77       0.00       0.55
      7.51      -0.21       0.28
      7.40       0.10      -0.31
      7.28       0.24      -0.21
      7.05      -0.16       0.65
      7.24      -0.74       0.35
      7.17      -0.02       0.14
      7.06       0.16       0.68
      6.93       0.08       0.39
      6.86       0.30       0.07
      6.96       0.14       0.39
      6.67       0.24       0.39
      6.74       0.11       0.15
      6.53      -0.17       0.23
      6.37      -0.21       0.35
      6.58      -0.22       0.59
      4.21      -0.29       0.46
      3.86      -0.15       0.22
      4.04      -0.10       0.69
      4.04      -0.35       0.62
      3.66      -0.02       0.85
      4.18       0.22       0.79
      4.10       0.32       0.69
      3.98       0.23       0.65
      4.48      -0.22       0.38
      7.59       0.11       0.45
      7.50       0.26       0.37
      7.57       0.13       0.51
      7.62      -0.50       0.27
      7.64       0.04       0.14
      8.43      -0.28       0.14
      8.19      -0.27      -0.26
      7.71       0.42      -0.74
      6.57       0.30       0.57
      6.65       0.31       0.52
      7.03      -0.19       0.35
      7.62      -0.17      -0.11
      7.50      -0.38       0.25
      7.61       0.15      -0.03
      7.42       0.23       0.13
      6.95       0.09      -0.01
      6.92       0.52       0.62
      6.80      -0.10       0.01
      7.15      -1.19       0.08
      8.02      -0.72      -0.55
      7.86      -0.54      -1.04
      6.90       0.45       0.47
      7.29       0.16      -0.16
      7.52       0.15      -0.14
      7.52      -0.22      -0.30
      7.30       0.86      -0.01
      6.59      -0.55      -0.06
      6.88      -0.73      -0.08
      6.83      -0.62       0.11
      7.30      -0.23       0.12
      7.14      -0.15       0.37
      6.89       0.04       0.29
      6.77       0.56       0.47
      6.65       0.21       0.40
      6.79       0.35       0.17
      6.78      -0.42       0.62
      6.85      -0.37       0.41
      7.45      -0.75      -0.28
      5.16      -0.69      -0.11
      3.74      -0.56      -0.11
      3.86      -0.75       0.04
      3.86      -0.24       0.44
      3.69       0.15       0.46
      3.70       0.18       0.36
      3.98       0.12       0.78
      4.25       0.04       0.39
      4.38       0.03       0.13
      8.10       0.40      -0.54
      7.58       0.50      -0.12
      7.97       0.25      -0.14
      7.11      -0.07       0.66
      7.45      -0.68       0.47
      7.69      -0.23       0.41
      7.16      -0.13       0.15
      7.21       0.32      -0.41
      7.43       0.92      -0.10
      7.47      -0.05      -0.15
      7.68      -0.43      -0.54
      6.84      -0.33       0.42
      7.12      -0.33       0.10
      7.74       0.41       0.44
      7.43       0.30       0.70
      7.91       0.79      -0.15
      8.05       0.44      -0.35
      7.52      -0.11      -0.68
      7.15      -0.53      -0.62
      6.06      -1.09       0.12
      5.76      -0.75       0.93
      6.71       0.10       0.25
      7.33      -0.04       0.04
      7.28       0.38      -0.06
      7.68      -0.28      -0.43
      7.40      -0.47      -0.13
      7.08      -0.53      -0.17
      6.76      -0.48       0.44
      6.10      -0.60       0.60
      6.05      -0.50       0.41
      6.53      -0.37       0.32
      6.57      -0.32       0.24
      6.54       0.02       0.24
      6.80       0.04       0.03
      6.79      -0.35       0.00
      6.85       0.10      -0.37
      7.15      -0.24      -0.39
      6.88      -0.52      -0.19
      4.17      -0.63       0.18
      2.86      -0.18       0.63
      3.54      -0.12       0.39
      3.90      -0.17       0.31
      4.42      -0.39       0.36
      4.65      -0.29       0.53
      5.40      -0.02       0.20
      5.18      -0.01       0.35
      4.99       0.20       0.16
      7.97      -0.23      -0.69
      7.79      -0.18      -0.20
      8.36       0.10      -0.17
      8.61       0.38      -0.43
      8.31       0.22      -0.10
      7.23       0.28       0.03
      7.38       0.16       0.26
      7.56      -0.04       0.47
      8.21       0.11      -0.21
      7.80      -0.15      -0.35
      7.65      -0.18      -0.43
      7.68       0.12       0.08
      6.64       0.26       0.64
      6.36       0.08       0.51
      6.81       0.19       0.36
      7.26       0.36       0.53
      7.69      -0.23      -0.34
      7.90      -0.34      -0.26
      7.29       0.36      -0.67
      7.35       0.39      -0.24
      7.14      -0.05      -0.47
      7.16      -0.58       0.07
      6.85       0.13       0.83
      7.23      -0.19      -0.21
      7.33      -0.10       0.05
      6.99       0.29       0.12
      6.77       0.06      -0.17
      7.15      -0.59       0.12
      6.80      -0.19       0.41
      6.91      -0.62       0.57
      7.81      -0.75       0.32
      7.52      -1.21       0.29
      8.05      -1.45       0.19
      7.22      -0.48       0.70
      6.62      -0.30       0.43
      6.68       0.09      -0.92
      6.46       0.65      -0.59
      7.45      -0.27       0.03
      7.68      -0.50       0.03
      7.34      -0.30      -0.02
      7.06      -0.24       0.13
      7.26      -0.43       0.44
      7.33      -0.50       0.14
      7.35      -1.22       0.13
      7.22       0.01      -0.29
      7.11      -0.23      -0.69
      7.13      -0.10      -0.31
      7.82      -0.42      -0.69
      7.23      -0.58       0.00
      6.74      -0.25      -0.09
      6.70       0.31       0.25
      6.90       0.05       0.02
      7.30      -0.29      -0.29
      8.19      -0.05      -0.12
      8.36      -0.15      -0.51
      8.11      -0.04      -0.60
      7.64       0.38      -0.27
      7.85      -0.27       0.42
      7.07       0.76      -0.49
      6.88       0.64       0.25
      7.62      -0.76       0.07
      7.51      -0.34       0.05
      7.46      -1.01       0.34
      8.00      -0.37       0.36
      7.82      -0.53       0.15
      7.87       0.08      -0.80
      7.76       0.48      -0.38
      7.45       0.48       0.21
      7.16       0.81       0.27
      6.90       0.02      -0.19
      6.99       0.30       0.69
      6.57      -0.10       0.75
      6.99      -0.08       0.54
      7.56       0.11      -0.66
      7.83      -0.15      -0.35
      8.19      -0.53       0.21
      8.36      -0.30      -0.12
      8.16      -0.79      -0.22
      7.73      -0.61       0.33
      7.29      -0.55       0.93
      6.55      -0.18       0.55
      7.19      -0.29      -0.60
      6.90       0.43      -0.76
      6.91       0.34      -1.22
      7.81      -0.31      -1.62
      8.10      -0.06      -0.41
      7.74      -0.81       0.01
      7.66      -0.63       0.29
      7.73      -0.67       0.38
      8.04      -0.89       0.15
      7.15      -0.42       0.37
      7.28      -0.73       0.11
      7.29      -0.32      -0.23
      7.64      -0.54      -0.23
      6.84      -0.01       0.01
      6.81      -0.41      -0.07
      6.64      -0.03       0.37
      6.72      -0.28       0.65
      6.12      -0.24       0.63
      6.75      -0.24       0.17
      6.62      -0.34      -0.45
      6.77      -0.07       0.57
      6.31       0.65       0.61
      7.16      -0.18      -0.27
      7.66      -0.32       0.28
      7.62       0.06       0.56
      8.22       0.38       0.42
      7.33      -0.18      -0.43
      7.03      -0.14       0.30
      6.79      -0.78       0.25
      6.78      -1.13       0.82
      6.97      -0.47       0.59
      6.52      -0.01       0.41
      6.83       0.16       0.30
      7.55       0.57       0.62
      7.19       0.95       0.14
      7.91       0.23       0.29
      6.95       0.90       0.03
      7.16       0.33      -0.10
      7.22       0.64      -0.30
      7.84      -0.18      -0.49
      7.90      -0.06      -0.40
      8.16      -0.03      -0.38
      8.61      -0.25      -0.26
      8.65      -0.08       0.05
      8.92      -0.22      -0.57
      7.80       0.16       0.03
      8.11      -0.35       0.12
      8.32      -0.33       0.33
      8.05       0.15      -0.35
      7.96      -0.35      -0.41
      7.92      -0.24      -0.68
      7.95       0.43      -0.64
      7.87       0.11      -1.06
      8.61      -0.57      -0.87
      8.61      -0.67      -0.50
      8.17      -0.24      -0.24
      7.37      -0.10       0.26
      8.13      -0.78       0.33
      8.04      -0.72       0.14
      7.38      -0.37      -0.11
      7.68      -0.13      -0.22
      7.16       0.17       0.10
      6.94       0.17      -0.06
      6.91      -0.07       0.17
      6.53       0.19       0.51
      7.46      -0.64       0.41
      7.26      -0.30       0.19
      7.40      -0.01       0.05
      7.14      -0.08       0.49
      7.75      -0.91      -0.09
      7.91      -0.78      -0.29
      8.10      -1.08       0.08
      8.31      -0.34      -0.35
      8.58      -0.15      -0.01
      7.78       0.19      -0.32
      7.09      -0.10      -0.41
      7.81      -0.64       0.37
      6.69       0.33       0.97
      7.15      -0.62       0.56
      6.94      -0.47       0.47
      7.00      -0.50       0.48
      8.04       0.36      -0.13
      7.27       0.12       0.25
      7.67       0.68       0.46
      7.49       0.57       0.29
      7.47       0.51      -0.11
      8.01      -0.16      -0.67
      8.53      -0.59       0.14
      8.34      -0.27      -0.03
      8.49      -0.41       0.31
      7.99      -0.00       0.27
      7.84       0.25      -0.04
      8.37      -0.31      -0.10
      8.81      -0.02      -0.12
      7.55      -0.81       0.59
      7.72       0.07      -0.11
      7.57      -0.84      -0.27
      6.96      -0.07       0.81
      7.44       0.27      -0.51
      7.60      -0.42      -0.41
      7.59      -0.39      -0.50
      8.17      -0.43      -0.68
      8.56       0.37      -0.49
      8.86      -0.14       0.11
      8.58      -0.36       0.06
      7.72      -0.20      -0.04
      7.53       0.11      -0.33
      7.11      -0.00       0.20
      7.29       0.11      -0.06
      7.30       0.38       0.41
      7.00      -0.46       0.69
      7.35      -0.99       0.26
      7.66      -1.30      -0.01
      7.60      -0.38       0.34
      7.70      -0.02       0.22
      7.77      -0.43      -0.24
      7.81      -0.50       0.39
      7.88      -1.01      -0.38
      7.80      -1.24       0.05
      7.82      -0.62      -0.01
      8.51      -0.27      -0.90
      8.43      -0.25      -0.88
      8.52       0.03      -0.68
      8.37      -0.05      -0.83
      7.41       0.33       0.77
      7.61      -0.27       0.42
      7.26      -0.45       0.31
      7.61      -0.15      -0.29
      7.39       0.20       0.40
      7.39       0.39       0.40
      7.42       0.68       0.32
      7.85       0.10       0.17
      7.76       0.26      -0.20
      8.77      -0.01      -0.77
      8.46      -0.01      -0.47
      8.68      -0.51      -0.43
      8.48      -0.38      -0.60
      8.57       0.01       0.10
      8.75      -0.56       0.14
      8.47       0.10      -0.03