# vtk DataFile Version 3.0
Low resolution, disturbed wind of YZ Slice at time = 54 seconds.
ASCII
DATASET STRUCTURED_POINTS
DIMENSIONS     1    26    12
ORIGIN    1378.00     635.00      15.00
SPACING      30.00      30.00      30.00
POINT_DATA             312
VECTORS DisYZ float
      6.34       0.40       0.27
      7.25       0.65       0.04
      5.40       0.08       0.11
      5.72       0.62       0.12
      4.36      -0.21       0.13
      4.21      -0.37       0.11
      5.45      -0.05      -0.17
      5.29       0.53       0.48
      5.46       0.23      -0.05
      4.80      -0.40       0.10
      5.24      -0.15       0.06
      5.05      -0.18      -0.01
      4.82       0.07      -0.09
      5.68      -0.68       0.49
      6.52      -0.12       0.21
      5.04       0.37      -0.10
      4.52       0.68       0.31
      5.40       0.57      -0.31
      5.53       0.11       0.54
      4.71      -0.48      -0.13
      4.63       0.11       0.35
      7.05       1.42       0.09
      5.30      -0.52       0.06
      7.19       0.50      -0.14
      5.38       0.48       0.44
      6.18      -0.83       0.39
      8.48       1.32       0.37
      7.00      -0.43      -0.08
      7.18      -0.34      -0.21
      6.38      -0.08       0.40
      6.36      -0.40       0.12
      6.78      -0.29       0.23
      7.10      -0.43      -0.43
      7.13      -0.21      -0.17
      6.26      -0.09       0.16
      6.69       0.48      -0.39
      6.72       0.75       0.06
      6.67      -0.03       0.36
      5.58       0.33       0.36
      6.99      -0.48      -0.48
      7.61      -0.55      -0.35
      6.57      -0.27      -0.51
      6.59      -0.18      -0.44
      5.83      -0.06      -0.07
      6.87       0.88      -0.05
      7.08       0.36       0.04
      5.77       0.39       0.67
      6.69      -0.59      -0.08
      6.80      -0.19       0.40
      7.44       0.28      -0.53
      5.47      -0.32      -0.23
      6.83      -0.23       0.23
      8.38       0.87       0.06
      7.37       0.28       0.06
      8.72       0.36       0.10
      6.95      -0.18       0.30
      6.11      -0.29       0.78
      6.56      -0.03       0.65
      7.86      -0.48       0.08
      7.40       0.07      -0.11
      7.59       0.41       0.23
      7.38       0.36       0.28
      7.28       0.25       0.05
      7.13       0.14       0.31
      7.45       0.04       0.30
      7.88      -0.25      -0.21
      7.74       0.07      -0.81
      8.13      -0.49      -0.45
      7.33      -0.20      -0.21
      7.36      -0.48      -0.05
      7.27       0.28      -0.30
      7.52       0.63       0.14
      7.70       0.95      -0.02
      7.24       0.62       0.48
      8.36       0.26      -0.07
      7.61       0.56       0.34
      7.63      -0.54       0.18
      7.92      -0.23       0.46
      8.84       0.35       0.08
      8.69       0.31      -0.04
      8.54      -0.06       0.10
      7.93      -0.21       0.57
      7.08      -0.81      -0.12
      7.28      -0.62       0.47
      8.77      -0.45      -0.40
      8.10      -0.47       0.37
      8.13      -0.16       0.00
      8.35       0.22      -0.45
      7.68       0.57       0.35
      7.72       0.56       0.21
      7.46       1.43       0.24
      7.73       0.56      -0.14
      7.30       0.27       0.11
      7.81      -0.19       0.02
      7.08      -0.32      -0.27
      8.14      -0.83       0.08
      7.28      -0.29      -0.05
      8.42       0.10      -0.41
      8.44       0.12       0.05
      8.43      -0.52       0.22
      8.51      -0.24       0.02
      7.99       0.01       0.26
      7.84       0.36       0.15
      8.01       0.47       0.16
      8.58      -0.51       0.17
      7.77      -1.05       0.05
      7.35      -1.02       0.34
      7.83      -0.94       0.44
      8.42      -0.76      -0.07
      8.11      -0.41       0.24
      8.83      -0.15      -0.19
      8.62      -0.26      -0.10
      8.92      -0.37      -0.35
      8.30      -0.13      -0.41
      8.39      -0.00      -0.29
      7.92       0.02       0.56
      8.20      -0.03      -0.13
      8.12       0.15       0.21
      8.00      -0.11       0.23
      8.07      -0.29       0.12
      8.45      -0.84      -0.19
      9.04      -0.68      -0.41
      9.16      -0.22      -0.16
      9.07      -0.35      -0.40
      8.82      -0.06       0.08
      8.80      -0.44       0.19
      9.03       0.08       0.36
      9.19       0.52      -0.03
      8.63       0.76       0.44
      8.26       1.01       0.33
      8.85      -0.19      -0.21
      7.65      -0.96       0.35
      8.33      -0.80       0.28
      7.39      -0.27       0.57
      8.15      -0.04       0.11
      8.00      -0.25       0.06
      8.96      -0.02      -0.03
      8.45      -0.67      -0.03
      9.56      -0.59      -0.36
      8.84      -0.29       0.01
      8.10      -0.14       0.08
      8.16      -0.22       0.16
      8.32      -0.50       0.11
      8.35      -0.72       0.11
      8.23      -0.84       0.22
      7.79      -0.95       0.60
      9.19      -0.87      -0.12
      9.26      -0.84       0.02
      9.23      -0.89      -0.02
      8.99      -0.50      -0.04
      8.86       0.01      -0.01
      9.48      -0.21       0.07
      9.24       0.28       0.17
      9.57       0.27       0.04
      8.99       0.40      -0.02
      8.42       0.62      -0.09
      8.62      -0.51       0.02
      8.67      -0.53       0.23
      8.67      -0.39       0.58
      8.94       0.01       0.41
      7.84      -0.31       0.66
      9.12      -0.32       0.38
      8.95       0.06       0.17
      9.15      -0.34       0.13
      9.78      -0.32      -0.38
      9.51      -0.47      -0.28
      8.12      -0.59       0.07
      8.68      -0.28       0.05
      8.47       0.26       0.43
      8.27      -0.46       0.37
      8.70      -0.97       0.07
      8.73      -0.80      -0.00
      9.33      -1.09       0.14
      9.53      -0.81       0.33
      9.67      -0.91      -0.01
      9.87      -0.38      -0.14
     10.06      -0.03      -0.19
      9.73       0.28       0.04
     10.44       0.23       0.05
     10.09       0.44       0.39
     10.57       0.65       0.01
      9.48       0.71       0.05
      8.91      -0.14      -0.11
      8.86      -0.41      -0.23
      8.41      -0.20       0.06
      8.56       0.10       0.72
      8.53       0.26       0.93
      8.39       0.18       0.42
      9.00      -0.17       0.34
      9.66      -0.49      -0.18
      9.91      -0.74      -0.54
      9.01      -0.60      -0.34
      8.88      -0.81       0.11
      8.47      -0.76      -0.42
      8.77      -0.87       0.42
      8.34      -0.73       0.56
      8.56      -0.79       0.25
      8.65      -0.74      -0.09
      8.87      -0.60       0.06
      9.69      -0.23       0.27
     10.38      -0.34      -0.27
     10.30      -0.34      -0.26
     10.11      -0.13      -0.37
      9.77       0.16      -0.24
     10.39       0.53      -0.47
      9.95       0.76      -0.40
      9.90       0.25       0.58
      9.93       0.56       0.15
      9.07      -0.09       0.04
      9.31      -0.39       0.02
      9.04      -0.10       0.14
      9.36      -0.17       0.22
      9.11      -0.15       0.33
      8.98      -0.31       0.61
      9.05      -0.36       0.21
      9.45      -0.29       0.25
      9.95      -0.47      -0.09
      9.29      -0.72      -0.48
      8.78      -0.61       0.34
      8.65      -1.24       0.22
      8.70      -1.13       0.52
      8.93      -0.73       0.06
      8.91      -0.81      -0.16
      9.20      -0.59      -0.00
      9.34      -0.24       0.06
      9.51      -0.17       0.19
      9.87      -0.07      -0.04
     10.21      -0.01      -0.20
     10.10       0.05      -0.27
     10.31       0.15      -0.29
     10.08       0.52      -0.21
      9.95       0.42      -0.14
      9.36       0.23      -0.13
      9.04       0.30       0.47
      9.36      -0.10       0.03
      9.08      -0.32       0.02
      8.93       0.10       0.28
      8.99      -0.16       0.24
      9.20      -0.54       0.73
      9.27      -0.36       0.53
      9.20       0.02       0.13
      9.33       0.14      -0.09
      9.20      -0.19       0.23
      9.66      -0.29      -0.09
      9.35      -0.55       0.16
      8.89      -0.24       0.51
      9.41      -0.32      -0.01
      9.48      -0.68       0.13
      8.90      -0.61       0.23
      9.78      -0.40      -0.04
      9.55      -0.22      -0.01
      9.66       0.12       0.30
      9.90       0.36       0.04
     10.35       0.19      -0.07
     10.25       0.33      -0.39
     10.24       0.20       0.14
      9.64       0.13      -0.28
      9.16       0.13      -0.15
      9.23       0.14      -0.17
      9.35      -0.15      -0.24
      8.74      -0.33       0.02
      9.20      -0.23       0.34
      8.48      -0.01       0.34
      9.56      -0.41       0.47
      9.61      -0.17       0.14
      9.65       0.21       0.02
      9.70       0.28       0.08
      9.35       0.17       0.09
      9.33       0.18       0.15
      9.50       0.26       0.06
      9.66       0.10       0.02
      9.78       0.03       0.31
      9.86      -0.30       0.49
      9.70      -0.20       0.04
      9.35      -0.45       0.16
      9.39      -0.36       0.45
      9.74      -0.35       0.04
     10.10      -0.18       0.05
     10.15      -0.05      -0.02
     10.20       0.00      -0.14
     10.37      -0.31      -0.55
      9.74      -0.17      -0.43
      9.32      -0.32      -0.47
      9.50      -1.09      -0.09
     10.19      -1.53      -0.52
      9.94      -1.52       0.04
      8.79      -0.38       0.28
      8.95      -0.22       0.35
      9.08      -0.53       0.31
      9.21      -0.12       0.62
      9.99       0.16       0.36
      9.41       0.19       0.29
      9.39       0.32       0.23
      9.15       0.05       0.06
      9.54       0.23       0.36
      9.56       0.39       0.30
      9.29       0.22       0.25
      9.96       0.15       0.10
      9.88       0.33       0.38
      9.84       0.35       0.05
      9.99      -0.01       0.25
      9.12      -0.32       0.31
      9.65      -0.29       0.38
      9.93      -0.36      -0.02
     10.59      -0.16       0.06
     10.57      -0.51      -0.53
     10.47      -0.56      -0.55
     10.10      -0.51      -0.51
      9.56      -0.45      -0.04
      9.54      -0.74       0.05
      9.39      -0.97      -0.14
     10.39      -1.36      -0.35
