# vtk DataFile Version 3.0
Low resolution, disturbed wind of YZ Slice at time = 51 seconds.
ASCII
DATASET STRUCTURED_POINTS
DIMENSIONS     1    26    12
ORIGIN    1504.00     635.00      15.00
SPACING      30.00      30.00      30.00
POINT_DATA             312
VECTORS DisYZ float
      7.82      -0.57      -0.42
      6.38       0.36       0.15
      6.50       1.60      -0.13
      5.95      -0.50      -0.28
      5.58       0.73      -0.14
      3.67       0.07       0.07
      5.81      -0.17       0.45
      5.45       0.05      -0.12
      6.30       0.08      -0.57
      3.76       0.42       0.45
      4.35      -0.56       0.91
      5.76       0.99       0.06
      4.95       0.97       0.59
      4.91       0.80       0.43
      5.05      -0.14      -0.14
      4.40       0.40       0.15
      6.05       0.30      -0.22
      4.62       0.08       0.45
      5.25      -0.07      -0.30
      5.65       0.55       0.26
      5.06      -0.85       0.16
      5.99      -0.78      -0.60
      6.30       0.95       0.37
      5.29      -0.03       0.01
      6.39      -0.25       0.11
      5.15       0.58       0.17
      9.01       0.31      -0.63
      8.39       0.90       0.31
      7.46       0.68       0.38
      6.85       0.20      -0.39
      5.96       0.15      -0.05
      5.43      -0.23       0.57
      6.93      -0.55       0.31
      7.05       0.22      -0.03
      6.80       0.07      -0.23
      5.79       0.10       0.22
      4.84      -0.04       0.96
      7.05       0.01      -0.52
      6.62      -0.24       0.50
      4.94      -0.90       1.19
      5.51       0.44       0.78
      7.27       1.05      -0.11
      5.95       1.04       1.03
      5.96       0.10      -0.23
      7.64      -0.04      -0.75
      6.58      -0.81       0.30
      5.85      -0.09       0.76
      7.51      -0.40       0.06
      6.63      -1.27      -0.38
      7.18       0.04       0.13
      7.40       0.31       0.32
      7.56      -0.50       0.01
      9.35       0.89      -0.40
      8.60       1.07      -0.10
      8.69       0.42      -0.40
      7.63      -0.25      -0.11
      7.83       0.03       0.06
      6.50      -0.10       0.76
      7.12      -0.13       0.12
      7.27       0.40      -0.41
      7.90       0.05       0.04
      7.51      -0.68       0.05
      7.12      -0.40       0.53
      7.68      -0.38       0.32
      7.49      -0.63       0.36
      6.80       0.02       0.93
      8.25       0.42       0.10
      6.67      -0.18       0.29
      7.07       0.06       0.85
      6.89       0.26       0.83
      7.49      -0.98       0.26
      7.28      -1.29       0.12
      7.47      -0.84       0.12
      9.08       0.48      -0.35
      7.84      -0.05      -0.28
      7.99      -0.65      -0.24
      8.27      -0.15       0.07
      8.48      -0.42      -0.17
      9.15       1.37       0.03
      9.13       1.22      -0.00
      8.68       1.19      -0.45
      7.25      -0.04      -0.33
      7.35       0.04      -0.74
      7.04       0.48       0.56
      7.18       0.76       0.31
      8.11       0.55      -0.18
      7.41       0.07       0.19
      7.74      -0.42       0.49
      7.84      -0.09       0.14
      8.02       0.36      -0.13
      8.05       0.42       0.13
      7.72      -0.16       0.13
      8.64      -0.17       0.28
      7.65       0.14       0.34
      6.90      -0.74       0.29
      7.68      -0.95       0.65
      7.75      -0.73       0.13
      8.04      -0.59       0.51
      8.54       0.46      -0.32
      9.00       0.58      -0.26
      9.04       0.15      -0.28
      7.88      -0.25      -0.39
      8.77       0.44      -0.37
      8.30       0.75       0.25
      8.22       0.71      -0.26
      8.82       1.15      -0.26
      8.74       0.66       0.11
      8.46       0.11      -0.01
      7.71       0.77       0.22
      7.94      -0.25       0.32
      7.57       0.09       0.83
      7.66       0.67       0.34
      7.97       0.40       0.35
      7.88       0.44       0.14
      8.33       0.38       0.58
      7.83       0.85       0.06
      8.37       0.14       0.49
      9.09       0.38       0.09
      8.80      -0.32       0.02
      8.07      -0.47      -0.08
      7.52      -0.01       0.96
      8.46       0.66      -0.20
      8.00       0.15      -0.10
      7.74       0.05       0.09
      9.27       0.39       0.13
      8.94       0.20      -0.21
      9.32       0.04      -0.39
      9.03       1.01      -0.17
      9.21       1.21      -0.16
      8.82       0.29      -0.42
      8.52       0.16       0.04
      8.19       0.38      -0.51
      8.65       0.25       0.25
      8.17      -0.33       0.31
      8.00      -0.43       0.60
      8.24      -0.67       0.37
      8.10      -0.74       0.20
      8.62       0.62       0.09
      9.05       0.70       0.02
      8.83       0.86      -0.20
      8.70       0.08       0.67
      8.09       0.85       0.52
      8.25       0.23       0.54
      8.49      -0.19       0.22
      8.81       0.44      -0.11
      8.24      -0.06       0.37
      8.10       0.20       0.37
      8.64       0.74      -0.29
      8.73       0.26       0.01
      8.24       0.73       0.25
      8.53       1.09       0.14
      8.50       1.08       0.65
      9.50       0.85      -0.40
      9.22       0.54      -0.29
      8.75      -0.11      -0.48
      8.20      -0.15      -0.35
      8.51       0.75       0.25
      8.52       0.07      -0.51
      8.09       0.07       0.57
      8.28      -0.09       1.15
      9.00      -0.97      -0.19
      8.80      -0.43      -0.11
      9.54      -0.41      -0.32
      9.23       0.03      -0.05
      9.17       0.49       0.07
      8.55       0.65       0.53
      8.55       0.19       0.86
      9.15       0.24       0.45
      8.62       0.45       0.54
      8.32       0.72       0.25
      8.77       0.20       0.13
      8.82       0.02       0.05
      8.68       0.34       0.44
      8.88      -0.18       0.31
      8.63       0.00       0.17
      8.78      -0.03       0.27
      8.70       0.60       0.13
      8.79       0.81       0.53
      9.66       0.04      -0.37
      9.36       0.12       0.07
      9.91       0.08      -0.49
      9.02       0.16      -0.24
      8.32       0.01       0.12
      8.35      -0.14      -0.03
      7.93      -0.15       0.67
      8.32       0.14       1.03
      9.14      -0.19       0.30
      9.35      -0.28      -0.07
      9.07       0.16      -0.19
      8.93      -0.19      -0.09
      9.35      -0.02      -0.02
      8.45       0.59       0.87
      8.97       0.23       0.39
      9.26       0.52      -0.30
      9.18       0.36       0.78
      9.12       0.10       0.60
      9.31      -0.39       0.13
     10.15      -0.58      -0.33
      9.49      -0.58       0.32
      8.97       0.06       0.74
      9.09      -0.13       0.35
      9.18       0.07       0.22
      8.73       0.50       0.43
      9.86       0.54       0.69
      9.35       0.29       0.00
      9.55      -0.04      -0.17
      9.33       0.23      -0.24
      9.38       0.10      -0.08
      8.43       0.25      -0.16
      8.44      -0.08       0.17
      8.42      -0.32       0.66
      8.45      -0.28       0.76
      9.25       0.11       0.29
      9.20      -0.19      -0.23
      9.14      -0.60       0.11
      8.97      -0.43       0.27
      9.79       0.13      -0.23
      8.95       0.06       0.85
      9.60      -0.39      -0.16
      8.61      -0.81       0.00
      8.53      -0.81       0.61
      9.36      -0.64       0.25
      9.48      -0.80      -0.46
     10.28      -1.14      -0.28
      9.92      -0.89       0.32
      9.18      -0.31       0.87
      9.50      -0.26       0.20
      9.40       0.11       0.29
      9.26       0.41       0.09
      9.22       0.41       0.17
      9.37      -0.21      -0.12
      9.59      -0.02      -0.09
      9.57       0.25      -0.20
      9.56       0.33       0.13
      8.12       0.21      -0.07
      7.99       0.16       0.80
      8.20      -0.19       0.20
      8.77       0.03       0.37
      9.22       0.17       0.33
      9.31       0.03      -0.08
      9.60      -0.39       0.09
      9.20      -0.76       0.26
      9.37      -0.37       0.11
      9.72      -0.48      -0.36
      9.86      -0.39      -0.11
      9.18      -1.05       0.11
      9.67      -0.91       0.23
      9.59      -0.97       0.11
      9.80      -1.14      -0.10
     10.07      -1.13      -0.13
      8.99      -0.66       0.21
      9.23      -0.60       0.49
      9.14      -0.32       0.70
      9.44       0.07       0.67
      9.63      -0.04       0.21
      9.61       0.01       0.04
     10.08       0.23      -0.12
     10.28      -0.32      -0.03
      9.34      -0.12      -0.03
      9.67      -0.12       0.29
      8.79       0.12       0.08
      8.27      -0.11       0.25
      8.12       0.03       0.99
      9.13       0.53       0.49
      9.36       0.10       0.34
      9.36       0.26       0.01
      9.30       0.22       0.53
      9.38      -0.10       0.39
      9.55      -0.25      -0.02
      9.76      -0.73       0.04
      9.89      -0.69       0.40
      9.29      -0.72       0.44
      9.58      -0.65       0.34
      9.70      -0.64       0.22
      9.68      -0.76      -0.04
      9.76      -1.00       0.05
      9.69      -0.86      -0.18
      9.51      -0.65       0.65
      9.61      -0.44       0.33
      9.83       0.13       0.70
      9.79      -0.01       0.17
      9.69      -0.12       0.12
     10.11      -0.05      -0.03
      9.93      -0.09      -0.01
     10.45       0.06      -0.08
     10.08       0.34       0.07
      9.56      -0.07      -0.09
      8.97      -0.01       0.20
      9.04       0.23       0.80
      9.44      -0.09       0.36
      9.38      -0.33       0.49
      9.01      -0.33       0.15
      9.48      -0.28       0.31
      9.43      -0.34       0.40
      9.26      -0.16       0.32
      9.74      -0.53       0.07
     10.04      -0.70       0.54
      9.84      -0.82       0.33
      9.81      -0.50       0.28
     10.49      -0.39       0.19
      9.59      -0.42       0.25
      9.59      -0.43      -0.11
      9.61      -0.46       0.35
     10.19      -0.57       0.23
      9.70      -0.15       0.26
      9.90      -0.00       0.33
      9.84      -0.03      -0.09
      9.80      -0.45       0.31
      9.74      -0.12       0.31
      9.87      -0.12      -0.23
      9.91       0.13      -0.30
     10.36       0.04       0.05
