# vtk DataFile Version 3.0
Low resolution, disturbed wind of YZ Slice at time = 6 seconds.
ASCII
DATASET STRUCTURED_POINTS
DIMENSIONS     1    26    12
ORIGIN    2008.00     635.00      15.00
SPACING      30.00      30.00      30.00
POINT_DATA             312
VECTORS DisYZ float
      7.44       1.89      -0.17
      6.40       0.94       0.22
      5.55       1.55       0.03
      5.79      -0.29       0.08
      6.50      -0.14      -0.44
      4.31      -0.49       0.37
      6.71      -0.04      -0.45
      4.43       0.42       0.06
      5.03       1.06      -0.01
      5.81       0.65      -0.42
      5.38       0.96      -0.20
      5.76       0.69      -0.14
      4.56       0.37      -0.44
      5.68       0.15       0.20
      5.29       0.08       0.08
      4.84      -0.14      -0.05
      5.72      -0.33      -0.40
      6.64      -0.06      -0.37
      4.08      -0.42       0.50
      7.80      -0.40      -0.47
      7.22       0.25      -0.12
      6.56       0.09      -0.14
      5.88      -0.85       0.50
      5.35       0.80       0.29
      5.79       0.47       0.38
      8.25       1.50      -0.26
      7.37       0.52      -0.51
      6.47       0.22      -0.37
      5.19       0.24       0.66
      7.03       0.32      -0.20
      5.90      -1.01       0.32
      5.55      -0.75       0.25
      6.07       0.00       0.13
      7.07      -0.08      -0.46
      6.87      -0.28      -0.45
      7.10      -0.12      -0.41
      7.16       0.16      -0.25
      7.09       0.46       0.21
      6.57       0.72       0.40
      5.64       0.62      -0.22
      6.62       0.27      -0.09
      7.01      -0.21      -0.72
      7.11      -0.08      -0.14
      7.43      -0.24      -0.24
      7.27      -0.09       0.15
      7.69      -0.39      -0.26
      7.59      -0.92      -0.29
      7.76      -0.72      -0.20
      8.24      -0.25      -0.26
      9.02       0.17      -0.76
      7.76      -0.07       0.04
      8.08       0.03      -0.37
      7.15      -0.22      -0.02
      7.31      -0.18      -0.34
      6.25       0.62       0.84
      6.51       0.70       0.65
      7.44      -0.31       0.39
      7.68       0.18       0.29
      7.82       0.04      -0.19
      7.83       0.30      -0.19
      7.50      -0.01      -0.40
      8.10       0.04      -0.37
      8.13       0.00      -0.57
      7.16      -0.29      -0.25
      5.82      -0.02      -0.15
      6.47       0.58       0.43
      6.76       0.64      -0.41
      7.10       0.86      -0.27
      7.23       0.06       0.40
      7.61      -0.49      -0.12
      7.73      -0.52      -0.17
      7.82       0.05      -0.21
      7.76      -0.49      -0.36
      7.79      -0.24      -0.35
      8.40       0.08      -0.42
      8.60       0.17       0.02
      8.10      -0.18      -0.01
      8.67       0.12      -0.35
      8.81       0.53      -0.10
      8.28       0.61       0.09
      7.62       0.51       0.70
      7.25      -0.03       0.81
      7.81       0.07       0.11
      8.12      -0.17       0.08
      8.34      -0.50      -0.30
      8.31      -0.52      -0.44
      8.35      -0.15      -0.53
      8.39      -0.12      -0.20
      8.48      -0.27      -0.65
      7.41      -0.29      -0.17
      7.61      -0.63      -0.15
      6.94      -0.29      -0.15
      7.33       0.19      -0.47
      7.02      -0.08       0.58
      7.75      -0.00       0.18
      8.11      -0.37      -0.12
      8.05      -0.15      -0.26
      8.35      -0.31      -0.34
      8.77       0.29      -0.06
      8.22       0.33      -0.25
      8.16       0.01       0.10
      8.39      -0.68      -0.34
      8.54      -0.73       0.11
      8.98      -0.49      -0.20
      8.70      -0.02      -0.16
      8.09       0.36       0.24
      7.51       1.04       0.69
      8.00       1.17       0.44
      7.98       0.20       0.20
      8.49      -0.05       0.08
      8.71      -0.05      -0.32
      8.53      -0.12      -0.23
      8.15       0.02      -0.26
      8.87      -0.44      -0.44
      8.15      -0.40      -0.53
      7.52      -0.12      -0.10
      8.25      -0.34      -0.41
      9.03      -0.06      -0.53
      7.75      -0.54      -0.11
      7.73      -0.43       0.18
      8.29      -0.53      -0.02
      8.33      -0.23      -0.17
      8.49      -0.39      -0.30
      8.59      -0.51      -0.46
      7.96       0.03       0.03
      9.16      -0.01      -0.19
      7.84       0.04       0.16
      8.97      -0.63      -0.09
      9.01      -0.23      -0.14
      8.91      -0.33      -0.14
      8.68       0.15      -0.20
      8.15       0.33       0.31
      8.03       0.46       0.69
      7.89       0.37       0.53
      7.83       0.74       0.35
      8.29       0.18      -0.27
      8.69      -0.10      -0.38
      8.47      -0.44      -0.41
      8.93      -0.12      -0.27
      8.93      -0.15      -0.43
      8.80      -0.39      -0.27
      8.19      -0.00      -0.22
      8.30       0.23      -0.42
      9.32       0.22      -0.26
      8.69       0.08      -0.17
      8.77       0.46      -0.07
      8.60       0.36      -0.04
      8.29      -0.03      -0.09
      8.45      -0.09      -0.11
      8.48      -0.52      -0.08
      8.61      -0.21       0.05
      9.69      -0.32      -0.37
      8.83      -0.24      -0.01
      8.90      -0.28       0.15
      8.96      -0.26      -0.11
      9.26      -0.30      -0.09
      7.94      -0.39      -0.03
      7.38       0.01       0.30
      7.68       0.16       0.39
      8.72       0.57       0.17
      8.07       0.60       0.34
      8.38       0.37      -0.15
      8.73      -0.24      -0.27
      8.93      -0.40      -0.25
      8.31      -0.69      -0.25
      8.60      -0.73      -0.23
      8.19      -0.89      -0.28
      8.80      -0.29      -0.44
      8.56       0.29      -0.22
      8.45       0.29      -0.17
      8.93       0.52      -0.39
      8.75       0.25      -0.17
      8.76       0.37       0.09
      8.62       0.06       0.24
      8.47      -0.10       0.09
      8.60       0.01      -0.18
      9.29      -0.12      -0.16
      9.31      -0.37      -0.11
      9.80      -0.15      -0.20
      9.18      -0.05       0.21
      9.40       0.07      -0.09
      9.46      -0.04      -0.12
      8.22      -0.33       0.34
      8.67      -0.16       0.26
      8.47       0.22       0.08
      8.63       0.23       0.05
      7.79       0.30       0.73
      8.76      -0.17       0.23
      8.97      -0.51      -0.19
      9.81      -0.73      -0.20
      8.46      -0.77      -0.04
      8.54      -0.80      -0.04
      9.51      -0.44      -0.36
      9.27      -0.43      -0.22
      9.36      -0.59      -0.46
      9.25      -0.19      -0.25
      9.70       0.08      -0.06
      9.48      -0.00      -0.03
      9.17      -0.13      -0.18
      8.62       0.39       0.51
      8.57       0.21       0.11
      8.83      -0.11       0.10
      9.12      -0.09       0.13
      9.55      -0.10      -0.02
      9.79      -0.11       0.05
      9.97      -0.15       0.05
      9.46       0.01      -0.19
      9.76      -0.14       0.05
      9.26      -0.91       0.05
      9.03      -0.87       0.47
      9.17      -0.65       0.04
      8.69      -0.96       0.34
      8.65      -0.74       0.19
      8.93      -0.77       0.52
      9.24      -0.85       0.15
      9.52      -1.32      -0.01
      9.63      -0.98      -0.14
      9.85      -0.58      -0.30
     10.18      -0.80      -0.09
      9.89      -0.71      -0.20
      9.96      -0.65      -0.47
      9.80      -0.49      -0.45
     10.48      -0.66      -0.22
      9.94      -0.42      -0.25
      9.97      -0.09      -0.18
      9.62      -0.10       0.09
      9.16       0.20       0.23
      9.11       0.24       0.26
      9.40       0.15      -0.06
      9.59       0.15      -0.00
      9.96       0.10       0.16
     10.26      -0.15      -0.13
      9.90       0.05       0.29
      9.17      -0.25       0.30
      9.38      -0.83      -0.25
      9.34      -0.70      -0.01
      9.01      -0.63      -0.23
      9.03      -0.84       0.06
      8.83      -0.68       0.20
      9.17      -0.45       0.54
      9.45      -0.96       0.26
      9.53      -0.57      -0.35
     10.08      -0.87      -0.06
     10.13      -0.60      -0.24
     10.30      -0.39      -0.30
     10.41      -0.34      -0.29
      9.98      -0.43      -0.36
     10.00      -0.79      -0.29
      9.79      -0.91      -0.25
     10.06      -0.80      -0.08
      9.76      -0.40      -0.09
     10.01      -0.25       0.09
      9.64      -0.03       0.06
      9.69      -0.19       0.16
      9.62      -0.22       0.06
      9.82      -0.22       0.30
     10.35      -0.22       0.25
     10.10      -0.01       0.49
     10.18      -0.07       0.29
      9.95       0.30       0.33
      9.90      -0.73      -0.20
      8.78      -0.57       0.08
      8.97      -1.10      -0.22
      8.39      -0.82       0.36
      9.08      -0.52       0.46
      9.21      -0.36       0.69
     10.04      -0.32      -0.12
      9.98      -0.60      -0.21
     10.16      -0.42      -0.27
     10.22      -0.36      -0.31
     10.26      -0.72      -0.20
      9.64      -0.81      -0.08
      9.85      -0.89      -0.12
      9.92      -0.95      -0.05
     10.58      -0.96      -0.17
     10.28      -0.76      -0.28
      9.48      -0.71       0.01
      9.59      -0.66       0.12
      9.63      -0.42       0.08
      9.33      -0.39       0.45
      9.36      -0.37       0.58
     10.31      -0.57       0.38
      9.96      -0.71       0.36
     10.55      -0.35       0.01
     10.23      -0.23      -0.11
      9.99       0.05       0.23
      9.95      -1.07       0.06
      9.14      -1.06      -0.16
      9.58      -1.13       0.01
      9.30      -1.18       0.11
      9.04      -1.12       0.63
     10.13      -1.20      -0.07
      9.93      -0.69      -0.07
     10.16      -0.43      -0.14
     10.27      -0.57      -0.50
     10.18      -0.70      -0.10
     10.28      -0.71       0.09
     10.55      -0.63      -0.04
     10.18      -0.43       0.08
      9.87      -0.86       0.04
      9.61      -1.03      -0.33
      9.91      -1.21      -0.39
      9.83      -0.83      -0.04
      9.82      -0.94      -0.10
      9.87      -0.18      -0.33
      9.91      -0.39       0.41
     10.10      -0.68       0.51
      9.85      -0.68       0.67
     10.58      -0.58       0.12
     10.31      -0.57      -0.04
      9.37      -0.60      -0.28
      9.50      -0.54       0.36
