# vtk DataFile Version 3.0
Low resolution, disturbed wind of XZ Slice at time = 15 seconds.
ASCII
DATASET STRUCTURED_POINTS
DIMENSIONS    47     1    12
ORIGIN     635.00    1000.00      15.00
SPACING      30.00      30.00      30.00
POINT_DATA             564
VECTORS DisXZ float
      3.95      -0.53       0.00
      4.14      -0.26      -0.06
      4.50      -0.37       0.20
      4.97      -0.11      -0.05
      4.68       0.69      -0.06
      5.24       0.48      -0.10
      5.14      -0.08      -0.13
      4.79       1.26       0.38
      5.20       0.19      -0.04
      5.39       0.48      -0.02
      6.01       0.18      -0.46
      5.88       0.39       0.15
      5.31       0.32      -0.25
      5.73      -0.29       0.38
      4.95      -0.10       0.52
      5.68       0.57       0.39
      3.64       0.22       0.64
      3.63       0.03      -0.30
      4.51       0.72       1.18
      5.73      -0.61      -0.73
      4.12      -0.14       0.51
      4.90       0.02       0.46
      2.97      -0.12       0.50
      4.62       0.45      -0.35
      5.07       0.45      -0.13
      4.58      -0.10      -0.19
      5.07      -0.21      -0.15
      4.89       0.61      -0.16
      4.66      -0.41      -0.21
      4.24       0.44       0.10
      4.35      -0.65      -0.03
      4.89       0.38      -0.05
      4.81       0.69      -0.28
      4.96       0.38      -0.51
      5.28       0.44      -0.13
      5.65       1.34      -0.19
      6.03      -0.09      -0.31
      4.90       0.78      -0.60
      5.02       0.42      -0.24
      4.95      -0.01       0.68
      4.86       0.45      -0.17
      5.47       0.38      -0.93
      4.66      -0.03       0.73
      5.89       0.00       0.64
      5.35      -0.38       0.07
      4.62       0.26       0.14
      5.42       1.31      -0.37
      5.58      -0.10       0.10
      6.21       0.60      -0.00
      6.14       0.53      -0.23
      6.19       0.30      -0.06
      5.93      -0.01      -0.04
      6.47       0.16      -0.20
      6.51       0.07      -0.06
      5.68      -0.58       0.08
      6.06      -0.14       0.15
      6.71       0.33      -0.04
      6.59      -0.20       0.25
      6.83       0.45       0.07
      2.31       0.61       0.32
      3.16      -0.00       0.39
      2.75      -0.29       0.53
      1.28      -0.73       1.41
      6.22      -0.46       0.17
      6.19       0.04       0.36
      7.25      -0.75       0.36
      7.27      -0.38      -0.29
      7.20      -0.48      -0.19
      5.90      -0.59       1.14
      6.51      -0.53      -0.45
      5.51      -0.16      -0.37
      6.13       0.90      -0.03
      6.59       0.58       0.58
      6.33       0.39       0.25
      5.79       0.25       0.15
      6.27       0.38      -0.26
      6.34       0.26       0.27
      5.96       0.33       0.14
      6.82       0.58       0.19
      6.08       0.14       0.24
      5.54      -0.87      -0.24
      6.62      -0.10      -0.25
      7.77      -0.15      -0.62
      6.98       0.28      -0.38
      7.08       1.01      -0.66
      5.67       0.57      -0.18
      5.80       0.33       0.56
      5.96       0.06       0.52
      6.63      -0.15      -0.73
      7.26      -0.28      -0.19
      6.09      -0.30       0.09
      5.68      -0.21       0.61
      6.43       0.68       0.16
      6.81       0.08       0.08
      6.51       0.14       0.38
      6.63       0.35       0.20
      6.83       0.32      -0.11
      6.86       0.48      -0.06
      6.39       0.00       0.22
      6.85      -0.20       0.23
      6.58      -0.24       0.31
      6.51      -0.14       0.05
      6.49      -0.27       0.15
      6.99       0.17       0.21
      6.96       0.17       0.42
      7.06       0.36       0.35
      3.53       0.43       0.74
      4.35       0.35       0.62
      4.18      -0.01       0.48
      4.19      -0.42       0.75
      7.67      -0.37       0.51
      7.78       0.45       0.11
      7.45      -0.27       0.25
      7.49      -0.68      -0.09
      7.47       0.03      -0.10
      7.49      -0.57       0.38
      7.26      -0.42      -0.22
      6.65       0.05      -0.28
      6.46       0.38       0.62
      6.30       0.35       0.49
      7.20      -0.21       0.07
      6.99      -0.16       0.08
      7.67      -0.52       0.41
      7.32       0.40      -0.07
      6.60       0.53       0.18
      6.73       0.21      -0.04
      6.23       0.05       0.30
      6.71      -0.14       0.34
      7.06      -0.57      -0.47
      7.31      -0.17      -0.70
      7.39      -0.87      -0.40
      6.99       1.33       0.46
      7.04       0.99      -0.42
      6.60       0.60       0.02
      7.26       0.47      -0.63
      7.64       0.41      -0.08
      7.37      -0.29      -0.64
      7.59      -0.13      -0.23
      6.69      -0.52       0.56
      6.86       0.39      -0.28
      6.17      -0.44       0.06
      7.54       0.12       0.71
      7.19       0.31       0.06
      6.23       0.11       0.28
      6.16      -0.14       0.10
      6.49       0.27       0.69
      7.09      -0.09       0.28
      7.41      -0.45       0.22
      7.83      -0.67       0.05
      7.28      -0.59       0.19
      7.19      -0.77       0.37
      7.12      -0.35       0.61
      7.19       0.31       0.63
      7.47       0.44       0.22
      4.45       0.42       0.78
      4.61       0.56       0.51
      4.78       0.97       0.35
      4.75       1.19       0.38
      7.99       0.73      -0.05
      8.29       0.28       0.11
      7.74       0.41       0.55
      8.06       0.07       0.13
      8.26      -0.12      -0.01
      8.50      -0.08      -0.03
      8.18      -0.01      -0.03
      8.00       0.53       0.42
      7.16       0.16       0.33
      7.97      -0.38       0.54
      8.00      -0.18      -0.19
      7.96       0.18      -0.25
      8.54      -0.01      -0.03
      7.44       0.42       0.19
      6.82      -0.30      -0.21
      7.41       0.38       0.57
      8.62      -0.27      -0.41
      8.32      -0.40       0.00
      8.19      -0.38      -0.35
      7.17      -0.67      -0.34
      7.61      -0.67       0.22
      8.35      -0.26      -0.55
      7.72      -0.18      -0.23
      7.71       0.29       0.09
      7.88       0.48       0.05
      8.19       0.21      -0.32
      8.53      -0.37      -0.45
      8.96      -0.09      -0.50
      7.53       0.34       0.38
      7.58       0.24      -0.38
      7.31       0.49       0.73
      6.67      -0.34       0.62
      6.42      -0.16       0.09
      6.83      -0.05      -0.19
      7.31      -0.14       0.20
      7.59      -0.16       0.40
      7.24      -0.32       0.22
      7.25      -0.43       0.30
      7.31      -0.52       0.35
      6.93      -0.20       0.55
      7.18       0.03       0.49
      7.47       0.14       0.30
      7.65      -0.10       0.41
      3.55      -0.10       0.82
      3.82      -0.10       0.56
      3.76       0.24       0.31
      4.31       0.52       0.36
      8.52       0.82      -0.13
      8.50       0.49       0.19
      8.28       0.54       0.50
      8.51      -0.14       0.13
      8.55      -0.10      -0.15
      8.47       0.14       0.10
      8.05       0.19       0.08
      8.10       0.11       0.29
      8.36       0.02       0.14
      8.62      -0.16      -0.23
      9.04       0.05       0.11
      8.12      -0.17       0.09
      7.95      -0.22       0.15
      7.85      -0.00       0.47
      7.44      -0.35       0.41
      7.85      -0.76       0.21
      7.74      -0.53       0.41
      7.89      -0.31       0.18
      8.15      -0.37       0.37
      8.41      -0.42       0.26
      8.21      -0.96       0.07
      8.57      -1.09      -0.09
      8.41      -0.37       0.22
      8.66      -0.11       0.02
      8.53      -0.34      -0.42
      8.85       0.03      -0.02
      9.18      -0.21       0.04
      8.04      -0.58       0.20
      7.51       0.01       0.50
      7.62      -0.02       0.22
      7.24       0.09       0.88
      7.80       0.46       0.09
      7.98       0.06      -0.45
      8.04       0.44      -0.67
      8.15       0.21      -0.77
      7.38      -0.18       0.28
      7.29       0.07       0.68
      7.73       0.13       0.59
      7.97      -0.00       0.56
      8.19       0.00       0.32
      8.08       0.07       0.25
      8.38       0.18       0.02
      8.40      -0.04      -0.16
      6.01       0.26       0.04
      6.53      -0.20       0.17
      6.93      -0.34       0.13
      7.09       0.01      -0.11
      8.29       1.01       0.21
      8.31       0.85       0.63
      8.47       0.04       0.62
      8.67      -0.00       0.05
      8.61       0.07       0.08
      8.94      -0.22       0.02
      9.11      -0.15      -0.00
      8.71       0.19       0.02
      8.97       0.52      -0.16
      8.77       0.33      -0.34
      8.57      -0.36      -0.02
      8.32      -0.15       0.25
      8.45       0.13       0.19
      7.98       0.12       0.55
      7.72      -0.02       0.24
      7.86      -0.27       0.52
      8.01      -0.85       0.65
      8.53      -0.96       0.37
      7.95      -0.58       0.30
      8.08      -0.48       0.32
      8.37      -0.75       0.22
      8.48      -0.65       0.27
      8.69      -0.45       0.20
      8.79      -0.29       0.04
      9.16      -0.37       0.07
      8.87      -0.13      -0.30
      8.78       0.14      -0.37
      8.31      -0.14       0.40
      7.96      -0.19       0.48
      8.38       0.07      -0.07
      8.53      -0.35       0.23
      9.02      -0.54      -0.57
      8.45      -0.72      -0.50
      8.71      -0.16      -0.80
      8.56       0.23      -0.34
      8.61      -0.27       0.11
      8.56      -0.30       0.35
      8.13      -0.23       0.68
      8.09      -0.14       0.80
      8.56      -0.36       0.33
      8.49      -0.72      -0.07
      8.72      -0.91      -0.36
      8.75      -0.88       0.19
      8.65       0.12      -0.03
      8.47       0.03      -0.31
      9.12       0.29      -0.29
      9.26       0.28      -0.36
      9.52       0.22       0.04
      9.33       0.65       0.54
      9.44       0.94       0.51
      9.71       0.07       0.07
      9.31      -0.24       0.02
      9.12      -0.14       0.09
      8.97      -0.37       0.16
      8.68      -0.42      -0.01
      9.12      -0.48      -0.36
      9.23      -0.03      -0.38
      8.65       0.02       0.58
      8.57      -0.16       0.24
      8.65      -0.06      -0.06
      9.14      -0.04       0.29
      9.30       0.25       0.37
      8.45       0.04       0.63
      8.52      -0.20      -0.10
      8.75      -0.73      -0.17
      8.93      -0.67       0.02
      9.06      -0.41       0.10
      8.96      -0.56      -0.01
      8.78      -0.80       0.01
      8.80      -0.85       0.19
      9.42      -0.77       0.13
      9.79      -0.93      -0.10
      9.45      -0.72      -0.00
      9.59      -0.30      -0.02
      9.15      -0.45       0.80
      9.41       0.22       0.36
      9.43       0.45      -0.01
      9.19      -1.49       0.06
      9.48      -1.00      -0.38
      9.27      -1.08      -0.15
      8.53       0.03       0.05
      8.61      -0.12       0.28
      8.42      -0.78       0.31
      8.15      -0.80       0.37
      8.25      -0.44       0.49
      8.65      -0.41       0.55
      9.41      -0.72       0.63
      9.82      -0.41      -0.01
      9.28      -0.73       0.20
      8.82      -1.27       0.51
      8.38      -1.69       0.01
      8.29      -1.21      -0.33
      8.00      -1.04      -0.34
      8.24      -0.94      -0.38
      8.69      -0.47       0.08
      8.95      -0.18       0.64
      9.05      -0.47       0.64
      9.25      -0.30       0.36
      8.98      -0.20       0.41
      8.75      -0.61       0.33
      8.81      -0.89       0.30
      8.90      -0.89      -0.23
      8.96      -0.75      -0.45
      9.20      -0.19      -0.28
      9.29      -0.14       0.12
      9.68      -0.31       0.15
      9.85       0.08      -0.13
      9.44      -0.17      -0.03
      8.89      -0.05       0.53
      9.17       0.13       0.35
      9.26       0.15      -0.15
      9.36      -0.36      -0.39
      9.11      -0.26      -0.03
      8.95      -0.50       0.19
      9.54      -0.91       0.03
      9.78      -1.36      -0.25
      9.45      -1.02       0.01
      9.21      -0.60       0.26
      9.27      -0.71       0.13
      9.54      -0.81       0.23
      9.71      -0.65       0.52
      9.52      -0.21       0.71
     10.00       0.28       0.33
      9.95       0.07      -0.06
      9.13      -0.79       0.15
      9.29      -0.34       0.14
      9.28      -0.03       0.08
      9.11      -0.37       0.12
      8.73      -0.33       0.32
      9.05      -0.47       0.59
      9.07      -0.66       0.28
      8.94      -0.84       0.33
      8.92      -0.82       0.42
      9.47      -0.59       0.19
     10.42      -0.87       0.15
     10.05      -0.71       0.56
      8.37      -0.75       0.70
      7.97      -0.82       0.53
      8.32      -1.10      -0.02
      8.86      -1.10      -0.20
      8.87      -0.97      -0.09
      8.69      -1.15      -0.04
      8.70      -0.95       0.08
      8.64      -0.92       0.33
      8.68      -1.09       0.33
      8.81      -1.05       0.38
      8.91      -1.09       0.57
      9.26      -1.19       0.10
      9.11      -1.04      -0.36
      8.78      -0.79      -0.37
      8.59      -0.84      -0.23
      8.65      -0.69      -0.24
      9.00      -0.17      -0.03
      9.47       0.20      -0.06
      9.21       0.11       0.04
      8.94      -0.04       0.05
      9.19      -0.16      -0.03
      9.37      -0.22      -0.19
      9.24      -0.32      -0.21
      9.15      -0.59      -0.27
      9.49      -0.53      -0.23
      9.65      -0.55      -0.11
      9.59      -0.91      -0.11
      9.70      -0.94      -0.06
      9.85      -0.68      -0.28
      9.80      -0.69      -0.67
      9.87      -0.80      -0.13
      9.99      -0.93       0.39
      9.80      -0.92       0.24
      9.81      -0.71       0.10
     10.03      -0.94      -0.11
      9.00      -0.05       0.24
      9.05      -0.24       0.34
      9.28      -0.81       0.29
      8.99      -0.71       0.13
      8.83      -0.49       0.37
      9.17      -0.46       0.59
      9.27      -0.82       0.56
      9.26      -0.69       0.33
      9.26      -0.33      -0.01
      9.05      -0.67       0.11
      8.51      -0.96       0.69
      8.56      -0.44       0.97
      8.98       0.07       0.51
      9.34      -0.16       0.21
      9.33      -0.28       0.02
      9.42      -0.43       0.10
      9.44      -0.46       0.14
      9.45      -0.61       0.04
      9.21      -1.03       0.19
      9.00      -1.05       0.23
      9.16      -1.06       0.18
      9.50      -1.16       0.50
     10.37      -1.00       0.52
     10.74      -1.43       0.15
      9.90      -1.09       0.06
      9.41      -1.03      -0.22
      9.16      -1.00      -0.31
      9.00      -0.57      -0.08
      8.80      -0.28      -0.21
      8.86      -0.15      -0.13
      9.22       0.00       0.13
      9.35       0.05       0.16
      9.31      -0.03       0.24
      9.46      -0.30       0.23
      9.82      -0.46      -0.10
      9.97      -0.22      -0.38
      9.93      -0.32      -0.20
      9.88      -0.65      -0.10
      9.93      -0.86      -0.16
      9.95      -0.86      -0.23
     10.19      -0.70      -0.21
     10.18      -0.41      -0.16
     10.12      -0.35      -0.36
     10.49      -0.71      -0.25
     10.32      -0.81      -0.23
     10.12      -0.89      -0.20
     10.24      -0.95      -0.25
      9.61      -0.20       0.35
      9.09      -0.45       0.34
      9.06      -0.52       0.52
      9.25      -0.53       0.53
      9.12      -0.62       0.38
      8.96      -0.88       0.48
      9.27      -0.62       0.75
      9.75      -0.08       0.68
      9.33       0.02       0.36
      8.76      -0.56       0.36
      8.87      -0.78       0.69
      9.46      -0.60       0.54
      9.78      -0.33       0.19
      9.99      -0.25       0.12
     10.04      -0.57       0.14
      9.96      -0.59       0.01
      9.96      -0.50       0.25
      9.69      -0.80       0.36
      9.32      -0.86       0.25
      9.57      -1.03       0.19
      9.83      -1.06      -0.01
      9.62      -0.89       0.16
      9.63      -1.12       0.33
      9.52      -1.22       0.48
      9.66      -0.95       0.38
      9.83      -0.81       0.02
     10.01      -0.82      -0.13
      9.97      -1.01       0.04
      9.49      -1.04      -0.51
      9.35      -1.00      -0.33
      9.21      -0.71       0.12
      9.07      -0.38       0.19
      9.13      -0.20       0.12
      9.46      -0.27      -0.05
      9.96      -0.42      -0.31
     10.49      -0.61      -0.30
     10.33      -0.68      -0.01
      9.89      -0.42       0.09
      9.95      -0.29       0.16
     10.19      -0.37      -0.08
     10.25      -0.64      -0.13
     10.24      -0.69      -0.13
     10.60      -0.62      -0.19
     10.32      -0.53      -0.08
     10.06      -0.75      -0.06
      9.82      -0.96       0.02
      9.68      -0.91      -0.16
      9.29      -0.48       0.39
      9.30      -0.40       0.51
      9.35      -0.27       0.72
      9.41      -0.17       0.69
      9.50      -0.11       0.36
      9.36      -0.08       0.37
      9.23       0.04       0.65
      9.08       0.18       0.68
      9.07       0.13       0.38
      9.21       0.01       0.22
      9.28       0.12       0.20
      9.45       0.30       0.11
      9.73       0.46       0.17
      9.86       0.49       0.25
     10.13       0.23       0.10
      9.96       0.04      -0.18
      9.97      -0.41       0.10
     10.01      -0.64       0.32
      9.96      -0.58       0.33
      9.79      -0.61       0.21
      9.61      -0.90       0.18
      9.49      -0.93       0.34
      9.50      -1.01       0.13
      9.65      -1.12       0.01
      9.78      -1.34      -0.02
      9.79      -1.56      -0.17
      9.99      -1.35      -0.14
     10.09      -1.04      -0.02
      9.93      -0.90       0.05
      9.72      -0.77      -0.03
      9.60      -0.76      -0.02
      9.59      -0.81       0.09
      9.67      -0.81       0.10
      9.91      -0.75      -0.02
     10.14      -0.78      -0.24
     10.07      -0.68      -0.25
     10.19      -0.48      -0.21
     10.45      -0.48      -0.38
     10.39      -0.58      -0.24
     10.30      -0.74      -0.09
     10.15      -1.01      -0.22
      9.97      -0.99      -0.33
     10.10      -0.63      -0.23
     10.09      -0.78      -0.01
      9.97      -1.09       0.11
      9.96      -0.86       0.06
     10.06      -0.72      -0.04
