# vtk DataFile Version 3.0
Low resolution, disturbed wind of YZ Slice at time = 24 seconds.
ASCII
DATASET STRUCTURED_POINTS
DIMENSIONS     1    26    12
ORIGIN    1252.00     635.00      15.00
SPACING      30.00      30.00      30.00
POINT_DATA             312
VECTORS DisYZ float
      6.77       0.78      -0.03
      5.96       0.42       0.01
      5.65       0.21       0.25
      5.67       0.80       0.02
      4.26       0.48       0.02
      3.87      -0.14       0.11
      5.12       0.46      -0.27
      6.24       0.48      -0.09
      5.13       0.17       0.01
      4.73      -0.45       0.48
      5.58      -0.23      -0.08
      5.09      -0.24      -0.13
      4.25      -0.64       0.59
      5.45      -0.10      -0.27
      6.72       0.47      -0.30
      4.95       0.92      -0.17
      4.95       0.83       0.01
      5.32       0.75      -0.42
      5.16       0.58       0.20
      4.47      -0.22       0.28
      4.94       0.45       0.15
      6.65       0.74       0.17
      4.45      -0.02       0.33
      6.53      -0.82      -0.58
      6.00      -0.62      -0.08
      6.60      -1.29       0.08
      8.96       0.64       0.03
      7.55       0.18       0.25
      7.23       0.28       0.22
      6.40       0.30       0.48
      5.70      -0.44       0.73
      5.92      -0.13       0.58
      7.12       0.12       0.12
      7.00       0.26       0.17
      6.38      -0.72       0.14
      6.44      -0.20       0.30
      6.31       0.07       0.40
      7.06      -0.28       0.06
      6.68      -0.85      -0.05
      7.44      -0.36      -0.01
      7.72      -0.05      -0.43
      7.33       0.87      -0.19
      6.50       0.41      -0.17
      5.99      -0.26       0.29
      6.87      -0.83       0.04
      7.14      -0.68       0.18
      6.99      -1.18       0.37
      7.62      -0.87      -0.48
      6.98      -1.10       0.47
      7.72      -0.43      -0.21
      7.03      -0.34      -0.13
      6.69      -0.35      -0.19
      9.22       0.88      -0.27
      8.51       0.29      -0.25
      8.19       0.52      -0.06
      7.37      -0.06       0.39
      6.76       0.15       0.55
      7.01       0.62       0.18
      7.40       0.45       0.11
      6.96       0.45       0.47
      6.70       0.19       0.60
      7.47      -0.04       0.12
      7.15       0.04       0.38
      7.25       0.26       0.60
      7.36      -0.40       0.26
      7.60      -0.06       0.18
      8.28      -0.11      -0.67
      6.38      -0.10       0.04
      5.99      -0.31       0.37
      6.23       0.43       0.09
      6.90       0.60       0.75
      7.19      -0.19       0.71
      7.28      -0.08       0.34
      8.46      -0.18      -0.21
      7.76      -0.15       0.02
      7.42      -0.19      -0.22
      7.97      -0.27      -0.23
      8.29      -0.31      -0.21
      9.31       0.69       0.23
      9.40       0.87      -0.08
      8.54       0.33       0.00
      7.50       0.26       0.17
      7.75       0.48       0.22
      7.35       0.00       0.37
      7.68       0.13       0.30
      8.36       0.63       0.27
      8.01       0.46       0.27
      7.61       0.38      -0.04
      7.66       0.35       0.51
      7.85       0.24       0.47
      8.32       0.11       0.20
      8.06       0.53      -0.16
      8.78       0.09      -0.17
      7.06       0.22       0.49
      7.31      -0.13       0.18
      7.64      -0.16       0.31
      7.44      -0.19       0.51
      9.04       0.12      -0.03
      8.57       0.69       0.10
      9.29       0.46      -0.29
      8.76       0.44      -0.10
      7.59      -0.17      -0.24
      9.35       0.07      -0.82
      7.70       0.74       0.23
      9.23       0.67       0.03
      8.72       0.49       0.10
      8.62       0.17       0.09
      8.01       0.14       0.02
      7.16       0.01       0.26
      8.02      -0.43       0.41
      8.62      -0.12       0.07
      8.05      -0.00       0.34
      8.28       0.27       0.34
      7.60       0.32       0.67
      8.74       0.94       0.17
      7.64       0.86       0.33
      8.18       0.67       0.27
      8.64       0.33      -0.05
      8.58       0.01       0.08
      8.05       0.09       0.19
      7.71      -0.03       0.52
      7.94       0.03       0.37
      7.19      -0.13       0.39
      8.21       0.34       0.34
      8.67       0.42       0.09
      8.66       0.60      -0.10
      9.07       0.44      -0.43
      9.00       0.97      -0.27
      9.14       0.47      -0.40
      8.42      -0.08      -0.20
      8.68       0.63      -0.01
      8.27       0.70      -0.31
      8.32       0.44       0.15
      7.95      -0.33       0.40
      8.35      -0.46      -0.39
      8.09      -0.32       0.18
      8.28      -0.19       0.06
      9.03       0.20       0.13
      8.51       0.30       0.16
      9.18       0.31       0.75
      8.93       0.72       0.59
      8.69       0.36       0.34
      8.41       0.85       0.68
      8.72       0.46       0.21
      8.68       0.37       0.37
      8.35       0.48      -0.08
      8.02       0.30       0.39
      8.88       0.33       0.24
      8.25       0.42       0.70
      8.52       0.58       0.11
      8.66       0.82       0.16
      8.77       1.04      -0.04
      9.14       0.76      -0.43
      9.36       0.19      -0.31
      9.15       0.01      -0.39
      8.19      -0.09      -0.12
      8.09       0.13       0.35
      8.20      -0.47      -0.44
      8.46      -0.26       0.54
      8.71      -0.18       0.49
      8.82      -0.62      -0.11
      8.84      -0.42      -0.00
      9.37      -0.24      -0.15
      9.26      -0.06      -0.25
      8.93       0.12       0.28
      8.99       0.67       0.58
      8.64       0.38       0.47
      8.61       0.45       0.24
      9.18       0.84       0.35
      9.18       0.76       0.42
      8.70       0.04       0.42
      8.69       0.04       0.16
      8.83      -0.03       0.35
      8.99      -0.56       0.44
      8.61      -0.30       0.43
      9.36       0.03       0.54
      9.08       0.12       0.33
      9.18       0.67       0.34
      9.49      -0.04      -0.42
      9.32      -0.09      -0.25
      9.35       0.13      -0.32
      8.92       0.16      -0.19
      8.19       0.05       0.27
      8.20      -0.44       0.32
      8.41      -0.77       0.25
      8.15      -0.32       0.72
      8.93      -0.22       0.24
      9.27      -0.19      -0.07
      9.20       0.03      -0.32
      8.94       0.00      -0.12
      9.00      -0.05       0.04
      8.55       0.28       0.63
      8.92      -0.20       0.44
      9.46       0.01      -0.42
      9.00      -0.22       0.56
      8.65      -0.24       0.69
      8.89      -0.58       0.47
      9.87      -0.61      -0.23
      9.88      -0.47       0.15
      8.61      -0.23       0.63
      9.07      -0.11       0.56
      9.20      -0.15       0.46
      9.37       0.26       0.47
      9.26       0.42       0.35
      9.18       0.09      -0.12
      9.59      -0.03      -0.16
      9.31       0.23      -0.13
      9.30       0.05      -0.11
      8.50       0.17       0.34
      8.12      -0.08       0.39
      8.63      -0.46       0.28
      8.62       0.08       0.42
      9.22       0.16       0.24
      9.16      -0.17      -0.11
      9.28      -0.53      -0.04
      8.85      -0.54       0.06
      9.73      -0.28      -0.28
      9.20      -0.22       0.45
      9.45      -0.45       0.25
      9.10      -0.70      -0.22
      8.49      -0.97       0.21
      8.93      -0.51       0.23
      9.43      -0.99       0.36
      9.66      -0.79      -0.33
      9.84      -1.15      -0.16
      9.33      -0.76       0.41
      8.64      -0.36       0.51
      9.42       0.01       0.40
      9.11       0.18       0.14
      9.37       0.00       0.23
      9.27      -0.16      -0.14
      9.48      -0.10      -0.07
      9.43       0.12      -0.11
      9.42       0.21      -0.02
      8.42      -0.15       0.05
      8.24      -0.16       0.61
      8.52       0.10       0.43
      8.59       0.15       0.39
      9.29       0.31       0.46
      9.34       0.21      -0.14
      9.28      -0.21       0.16
      9.18      -0.56       0.13
      9.55      -0.79       0.06
      9.76      -0.75      -0.07
     10.10      -0.38      -0.30
      9.27      -0.80       0.20
      9.18      -0.88       0.20
      9.47      -0.83       0.16
      9.22      -1.03      -0.07
      9.67      -1.00      -0.22
      9.79      -0.99       0.12
      8.79      -0.57       0.49
      9.58      -1.02       0.39
      9.70      -0.24       0.50
      9.47      -0.02       0.26
      9.57      -0.03       0.05
      9.97       0.11      -0.05
     10.24      -0.32      -0.01
      9.15      -0.22       0.00
      9.65      -0.24       0.17
      8.74      -0.08       0.13
      8.40      -0.42       0.56
      8.65      -0.18       0.63
      9.03       0.41       0.55
      9.34       0.09       0.29
      9.26       0.21       0.06
      9.05       0.29       0.43
      9.35      -0.17       0.42
      9.44      -0.45       0.21
      9.56      -0.37      -0.06
      9.86      -0.61       0.25
      9.71      -0.84       0.25
      9.27      -0.86       0.30
      9.69      -0.64       0.34
      9.61      -0.53      -0.03
      9.67      -0.77      -0.05
      9.65      -0.93       0.09
      9.76      -0.75       0.22
      9.45      -0.46       0.55
      9.50      -0.35       0.29
      9.74      -0.01       0.05
      9.65      -0.25       0.16
      9.93      -0.31       0.19
      9.64      -0.25      -0.01
     10.21      -0.20      -0.18
      9.99       0.21      -0.01
      9.48      -0.05       0.04
      9.24       0.02       0.32
      8.88       0.15       0.59
      9.37       0.08       0.29
      9.48      -0.34       0.58
      9.07      -0.52       0.06
      9.38      -0.52       0.39
      9.43      -0.44       0.42
      9.13      -0.25       0.44
      9.76      -0.70       0.07
      9.90      -0.54       0.25
     10.03      -0.74       0.36
      9.83      -0.53       0.41
     10.18      -0.41       0.22
      9.80      -0.31       0.25
      9.61      -0.43      -0.08
      9.50      -0.53       0.14
      9.88      -0.56       0.38
     10.01      -0.34       0.25
      9.72      -0.23       0.28
      9.86      -0.31      -0.01
      9.48      -0.67       0.30
      9.52      -0.36       0.25
      9.80      -0.20      -0.13
      9.91      -0.14      -0.23
     10.32      -0.31      -0.20
