# vtk DataFile Version 3.0
Low resolution, disturbed wind of YZ Slice at time = 33 seconds.
ASCII
DATASET STRUCTURED_POINTS
DIMENSIONS     1    26    12
ORIGIN    1882.00     635.00      15.00
SPACING      30.00      30.00      30.00
POINT_DATA             312
VECTORS DisYZ float
      6.05       1.37       0.00
      6.02       0.50      -0.47
      4.22       0.74      -0.10
      4.63       0.73       0.46
      4.48      -0.38       0.24
      5.82      -0.13      -0.15
      6.30      -0.02      -0.08
      6.09       0.68      -0.02
      5.47       0.58      -0.33
      5.69       1.03      -0.18
      4.99       0.84      -0.09
      5.95       0.01      -0.30
      4.86       0.82       0.31
      5.90      -0.32       0.18
      5.57      -0.26      -0.41
      5.11      -0.19       0.52
      4.76       0.65       0.16
      4.91       0.54       0.20
      6.10       0.65      -0.27
      5.40       0.21       0.21
      5.33       0.64      -0.15
      6.80       0.06       0.08
      5.91       0.50      -0.26
      5.29      -0.58       0.34
      7.31       0.30      -0.36
      7.38       0.44      -0.28
      6.72      -0.59      -0.61
      6.86       0.22      -0.20
      6.79       0.57      -0.11
      6.27      -0.06       0.42
      5.59       0.36       0.33
      6.68       0.05       0.34
      6.72      -0.16      -0.13
      7.42      -0.28      -0.66
      6.36      -0.52      -0.14
      5.59      -0.41       0.06
      5.36       0.35       0.57
      6.52       0.30      -0.23
      7.20       0.73       0.36
      6.98       0.66      -0.27
      5.66      -0.61       0.15
      6.28       0.43       0.08
      7.58       0.17      -0.41
      6.50       0.53       0.14
      7.17       0.74      -0.07
      6.05       0.30      -0.02
      7.28       0.20       0.46
      6.94       0.42       0.36
      8.03       0.33      -0.09
      7.73       0.72      -0.34
      7.66       0.04      -0.48
      7.89      -0.51      -0.13
      6.20      -0.06      -0.29
      7.17      -0.48       0.11
      7.02      -0.64       0.44
      7.25      -0.15       0.41
      7.29       0.36       0.66
      7.29       0.02       0.04
      6.84       0.05       0.15
      7.69      -0.63      -0.51
      7.59      -0.36       0.06
      6.60      -0.15       0.66
      6.28       0.50       0.37
      6.58       0.61       0.49
      6.81       0.75      -0.01
      7.10       0.57       0.29
      6.47      -0.03       0.47
      6.62       0.11      -0.15
      7.10       0.48       0.30
      7.34       0.20      -0.34
      7.13       0.49       0.29
      7.16       0.02       0.45
      7.90       0.20       0.38
      7.65       0.11       0.24
      8.22       0.71       0.31
      7.94       0.22       0.07
      8.52      -0.02      -0.44
      8.59       0.07       0.18
      7.47      -0.26       0.65
      7.67      -0.25      -0.53
      7.79      -0.30       0.06
      8.43      -0.52      -0.05
      7.25      -0.37       0.96
      7.83      -0.42       0.19
      7.94      -0.31       0.12
      8.10      -0.23      -0.09
      8.43      -0.33      -0.17
      7.93      -0.43       0.23
      7.64      -0.01       0.16
      7.04      -0.38       0.19
      7.82      -0.43       0.04
      6.67      -1.15       0.55
      8.08      -0.07       0.31
      8.58       0.65      -0.46
      8.44       0.67       0.03
      8.33       0.10       0.42
      7.82      -0.14       0.18
      7.40       0.20       0.54
      7.95       0.59       0.09
      8.10       0.47       0.26
      8.10       0.20       0.02
      8.91      -0.23       0.60
      8.98      -0.37      -0.06
      8.90      -0.43      -0.12
      7.69       0.11       0.42
      8.20       0.01       0.03
      8.11      -0.55      -0.12
      8.69      -0.40      -0.10
      8.15      -0.17       0.19
      7.93      -0.02       0.26
      8.14      -0.39       0.51
      8.44      -0.59       0.23
      8.91      -0.63      -0.11
      8.88      -0.52      -0.42
      8.73      -0.37      -0.21
      7.71      -0.18       0.21
      8.70      -0.59       0.16
      9.18      -0.75       0.35
      9.36      -0.49      -0.88
      9.16      -0.30      -0.74
      8.81      -1.00       0.19
      8.47      -0.17       0.24
      8.23      -0.03       0.29
      8.44       0.18       0.29
      8.18       0.39      -0.02
      8.70       0.18       0.06
      8.36       0.07       0.42
      8.91      -0.04       0.63
      8.98       0.05       0.08
      9.16      -0.30      -0.20
      8.75       0.26      -0.06
      8.03       0.31       0.41
      8.33       0.33       0.18
      8.15       0.20       0.16
      7.91      -0.28       0.47
      8.17      -0.29       0.42
      8.46      -0.22       0.46
      8.65      -0.55       0.27
      8.25      -0.15       0.54
      9.20      -0.69      -0.39
      8.84      -0.90      -0.90
      8.09      -0.66       0.68
      8.20      -0.53      -0.10
      9.05      -0.45       0.13
      9.38      -0.84      -0.18
      9.27      -0.92      -0.52
      9.51      -0.32      -0.69
      8.63      -0.91      -0.34
      8.88      -0.73       0.22
      9.26      -0.58       0.09
      8.99      -0.31       0.05
      9.12      -0.22       0.03
      9.00      -0.04      -0.16
      9.03       0.30       0.25
      9.31       0.17       0.37
      9.39      -0.24       0.37
      8.87      -0.03       0.42
      8.19       0.17       0.54
      8.32       0.38       0.05
      8.70       0.55       0.07
      8.31       0.12       0.68
      8.53       0.11       0.45
      8.32       0.10       0.53
      8.60      -0.15       0.77
      9.00      -0.07       0.44
      9.53      -0.14       0.19
      9.00      -0.10      -0.60
      8.52      -0.52       0.24
      9.13      -0.50       0.01
      9.47      -0.70       0.11
      9.69      -0.32      -0.32
      9.80      -0.52      -0.52
      9.75      -0.53      -0.54
      9.04      -0.67      -0.11
      9.59      -0.80       0.20
      9.18      -0.53      -0.09
      9.34      -0.59       0.21
      9.14      -0.64      -0.00
      9.15      -0.65      -0.25
      9.21      -0.35      -0.00
      9.34      -0.47       0.67
      9.19      -0.51       0.55
      8.47      -0.15       0.32
      8.70      -0.10       0.37
      8.81      -0.08       0.24
      8.50      -0.28       0.37
      8.83       0.05       0.62
      8.36       0.10       0.57
      8.45       0.06       0.90
      8.32      -0.04       0.73
      8.92      -0.02       0.76
      9.22      -0.06      -0.10
      8.75      -0.73      -0.31
      8.93      -0.16       0.13
      9.20      -0.59       0.20
      9.61      -0.24      -0.47
     10.11      -0.29      -0.63
      9.93      -0.53      -0.56
      9.57      -0.75      -0.20
      9.07      -0.69      -0.01
      9.23      -0.64       0.33
      9.17      -0.45       0.37
      9.26      -0.50       0.34
      9.27      -0.32       0.07
      9.43      -0.48      -0.18
      9.52      -0.76      -0.34
      9.61      -1.09       0.51
      9.38      -0.35       0.27
      8.99       0.03      -0.14
      8.51      -0.15       0.54
      8.68       0.10       0.36
      9.29       0.24       0.20
      8.65       0.71       0.40
      8.72       0.50       0.64
      8.60       0.14       0.93
      8.60       0.02       0.52
      9.03       0.01       0.37
      9.16       0.20       0.10
      9.17      -0.58       0.11
      9.26      -0.77      -0.12
      9.70      -0.47      -0.31
     10.00      -0.51      -0.55
      9.82      -0.71      -0.25
      9.67      -0.65      -0.49
      9.98      -0.75      -0.10
      9.09      -0.69       0.31
      8.61      -0.66       0.53
      9.30      -0.62       0.54
      9.51      -0.37       0.20
      9.31      -0.52       0.16
      9.23      -0.72      -0.13
      9.36      -1.09      -0.11
      9.76      -0.95      -0.23
     10.19      -0.11      -0.52
      9.14      -0.68       0.23
      8.72      -0.30       0.45
      9.29      -0.46       0.45
      9.13      -0.56       0.48
      9.58      -0.13      -0.11
      8.95      -0.29       0.61
      9.56      -0.25       0.29
      9.24       0.36       0.25
      9.30      -0.00       0.30
      9.26      -0.33       0.43
      9.41      -0.59       0.30
      9.76      -0.65      -0.17
     10.07      -0.26      -0.30
     10.08      -0.55      -0.40
     10.05      -0.56      -0.08
      9.96      -0.57      -0.10
      9.05      -0.78       0.11
      9.24      -0.66       0.41
      9.21      -0.82       0.48
      9.54      -1.04      -0.03
      9.52      -1.04       0.21
      9.57      -0.90       0.32
      9.53      -0.84       0.32
      9.79      -0.72      -0.12
     10.26      -0.49      -0.81
      9.67      -0.36      -0.29
      9.25      -1.14       0.81
      9.19      -1.05       0.19
      9.70      -0.91       0.42
      9.93      -0.47       0.20
      9.24      -0.99      -0.09
     10.19      -0.50       0.08
      9.54      -0.10       0.36
      8.82      -0.36       0.29
      9.60      -0.83       0.62
      9.49      -0.66       0.40
      9.61      -0.67       0.22
      9.97      -0.55       0.02
     10.35      -0.59      -0.18
     10.02      -0.48      -0.14
      9.47      -0.98      -0.03
      9.41      -0.88       0.25
      9.53      -0.85       0.21
      9.64      -0.64       0.44
      9.67      -0.51       0.23
      9.79      -0.59       0.20
      9.65      -0.79       0.13
      9.69      -0.69       0.30
      9.98      -0.37       0.06
      9.95      -0.27       0.03
     10.80      -0.53      -0.72
     10.11      -1.11       0.05
      9.19      -0.63       0.46
      9.20      -0.63       0.27
      9.89      -0.81       0.19
      9.85      -0.78       0.18
      9.99      -0.59       0.15
      9.55      -0.37      -0.05
      9.27      -0.45       0.59
      9.74      -0.43       0.75
      9.38      -0.90       0.60
      9.56      -0.77       0.18
      9.64      -0.32       0.05
     10.36      -0.59       0.01
     10.04      -0.58      -0.25
      9.72      -0.77      -0.09
      9.65      -1.21       0.26
      9.49      -0.88       0.28
      9.84      -0.75       0.40
      9.92      -0.78       0.44
      9.86      -0.62       0.36
     10.02      -0.86       0.09
     10.24      -0.56      -0.01
      9.95      -0.46       0.24
     10.36      -0.68       0.16
     10.30      -0.59      -0.11
     11.00      -0.85      -0.52
     10.92      -0.84      -0.26
