# vtk DataFile Version 3.0
Low resolution, disturbed wind of YZ Slice at time = 27 seconds.
ASCII
DATASET STRUCTURED_POINTS
DIMENSIONS     1    26    12
ORIGIN    1252.00     635.00      15.00
SPACING      30.00      30.00      30.00
POINT_DATA             312
VECTORS DisYZ float
      6.76       0.68      -0.18
      6.65       0.08      -0.19
      5.58       0.68       0.19
      5.73       0.50       0.06
      4.18       0.42       0.18
      3.97      -0.16       0.00
      5.16       0.52      -0.07
      6.18       0.15      -0.12
      4.79       0.36       0.13
      3.97      -0.34       0.36
      5.80      -0.44       0.20
      5.05      -0.40       0.45
      4.62      -0.40       0.17
      6.26       0.02       0.25
      6.96       0.49      -0.68
      5.33       0.42      -0.23
      4.55       0.51       0.01
      5.15       0.51      -0.20
      5.16       0.48       0.14
      4.72       0.08       0.08
      5.00       0.42      -0.08
      7.08       0.60       0.16
      4.32      -0.17       0.40
      6.77      -0.30      -0.43
      5.58      -0.38       0.14
      6.71      -1.14      -0.11
      8.65       0.54      -0.23
      8.05       0.61       0.18
      7.02       0.37       0.32
      6.29       0.04       0.28
      5.98      -0.43       0.73
      6.27       0.22       0.39
      7.21       0.27      -0.03
      7.22       0.51       0.18
      6.23      -0.40       0.41
      6.43       0.18       0.28
      6.50      -0.27       0.15
      7.01      -0.53      -0.10
      6.61      -0.80       0.53
      7.42      -0.54      -0.12
      7.52      -0.23      -0.93
      7.27      -0.13       0.11
      6.84       0.68       0.21
      6.17       0.45       0.23
      6.78      -0.26      -0.08
      6.81      -0.06       0.19
      6.71      -0.96       0.50
      7.47      -0.60      -0.58
      6.69      -1.06       0.35
      7.64      -0.43      -0.36
      6.83      -0.43      -0.26
      6.34      -0.26      -0.35
      8.93       0.44      -0.31
      8.49       0.04      -0.13
      7.88       0.26       0.33
      7.49      -0.24       0.65
      6.71      -0.00       0.36
      6.78       0.23       0.39
      7.44       0.11       0.23
      6.87       0.03       0.55
      6.68      -0.17       0.49
      7.32      -0.01       0.40
      7.30      -0.07       0.20
      7.53       0.07       0.63
      7.37      -0.18       0.20
      7.82       0.29      -0.23
      8.22       0.00      -0.61
      6.55      -0.42       0.06
      6.11      -0.25       0.32
      6.52       0.43       0.08
      7.24       0.37       0.16
      7.18       0.11       0.37
      7.44       0.27       0.42
      8.41      -0.00      -0.31
      7.54      -0.07       0.23
      7.57      -0.03      -0.15
      8.04      -0.07      -0.12
      8.20      -0.50      -0.43
      8.81       0.39       0.06
      9.09       0.69      -0.02
      8.43       0.14       0.05
      7.64       0.30       0.26
      7.84       0.77       0.11
      7.47      -0.04       0.31
      7.55       0.16       0.25
      7.86       0.38       0.60
      8.10       0.19       0.15
      7.32       0.44       0.08
      7.62       0.28       0.41
      7.80       0.55       0.45
      7.95       0.47       0.22
      8.22       0.68      -0.46
      8.58      -0.01      -0.09
      7.23      -0.03      -0.13
      7.96      -0.08       0.31
      8.13       0.01       0.09
      7.65      -0.11       0.42
      9.06       0.21       0.24
      8.72       0.58       0.02
      9.15       0.76      -0.44
      8.58       0.59       0.13
      7.63       0.21       0.13
      8.95       0.23      -0.45
      7.72       0.46       0.10
      9.11       0.57       0.13
      8.57       0.09      -0.05
      8.33       0.05       0.20
      7.63      -0.13      -0.16
      7.14      -0.23       0.29
      7.88      -0.44       0.74
      8.58      -0.12       0.16
      8.01      -0.34       0.10
      8.44      -0.01       0.67
      8.19       0.21       0.27
      9.06       0.67      -0.20
      7.98       0.89       0.57
      7.93       0.77       0.11
      8.61       0.24      -0.08
      8.75       0.14       0.01
      8.07       0.04       0.07
      8.48      -0.19       0.30
      8.23      -0.37       0.34
      7.15       0.03       0.42
      8.61       0.66      -0.01
      8.68       0.37      -0.21
      9.28       0.33      -0.42
      8.82       0.38      -0.50
      8.47       0.68      -0.12
      8.90       0.12      -0.53
      8.32      -0.17      -0.33
      8.81       0.36      -0.03
      8.27       0.39       0.01
      8.10       0.28       0.02
      7.58      -0.32       0.21
      8.31      -0.38      -0.20
      8.04      -0.22       0.37
      8.28      -0.05       0.06
      9.05      -0.12       0.30
      9.33      -0.20       0.39
      9.08       0.16      -0.14
      8.80       0.59      -0.23
      8.37       0.34       0.34
      8.19       0.89       0.22
      8.24       0.74       0.12
      8.67      -0.08       0.30
      8.47       0.02      -0.00
      8.23       0.05       0.39
      8.59       0.14       0.56
      8.38       0.33       0.68
      8.82       0.33      -0.08
      9.00       0.57       0.19
      9.14       0.67      -0.22
      9.16       0.48      -0.42
      9.30       0.11      -0.04
      9.18      -0.02      -0.41
      8.28      -0.13      -0.01
      8.16      -0.05       0.27
      8.26      -0.21      -0.17
      8.70      -0.21       0.32
      8.65      -0.28      -0.10
      8.59      -0.28      -0.05
      8.75       0.20       0.13
      9.12       0.00       0.02
      9.19      -0.04      -0.19
      8.94       0.10       0.19
      8.72       0.35       0.23
      8.87       0.04       0.20
      8.80      -0.02      -0.11
      9.41       0.34       0.20
      8.86       0.44       0.51
      8.46       0.09       0.61
      8.58       0.00       0.29
      8.63      -0.13       0.58
      9.19      -0.50       0.59
      8.43      -0.56       0.63
      9.43       0.10       0.25
      9.27      -0.12       0.26
      9.06       0.23      -0.01
      9.22      -0.19      -0.07
      9.54      -0.13      -0.25
      9.38       0.01      -0.36
      8.93       0.04      -0.05
      8.13      -0.20       0.20
      8.16      -0.71       0.43
      8.57      -0.82       0.30
      8.68      -0.47       0.16
      8.95      -0.27       0.11
      9.54      -0.35       0.04
      9.20      -0.20      -0.13
      9.24      -0.13      -0.37
      9.10       0.00       0.06
      8.51       0.16       0.45
      8.70      -0.19       0.31
      9.35      -0.21      -0.57
      8.76      -0.47       0.31
      8.80      -0.71       0.51
      8.71      -0.47       0.45
      9.37      -0.48      -0.04
      9.38      -0.45       0.72
      9.02      -0.49       0.61
      8.77      -0.30       0.67
      9.71      -0.33       0.18
      9.57      -0.02      -0.08
      8.83       0.15       0.14
      9.09       0.16      -0.12
      9.85       0.13      -0.17
      9.44       0.31      -0.07
      9.24       0.33      -0.04
      8.36      -0.05       0.49
      8.19      -0.15       0.45
      8.58      -0.13       0.13
      8.99       0.06       0.28
      9.14      -0.11       0.39
      9.03      -0.29      -0.06
      9.33      -0.57      -0.14
      9.05      -0.53       0.04
      9.67      -0.46      -0.02
      8.95      -0.14       0.60
      8.89      -0.50       0.36
      9.35      -0.71      -0.29
      8.53      -1.11       0.13
      8.89      -0.62       0.32
      9.33      -0.86       0.35
      9.52      -1.16      -0.09
      9.68      -1.36       0.21
      9.32      -0.92       0.29
      9.01      -0.65       0.43
      9.55      -0.11      -0.16
      9.04       0.00       0.08
      9.02      -0.03       0.22
      9.44      -0.01      -0.04
      9.35       0.03      -0.04
      9.49       0.22      -0.19
      9.42       0.37      -0.08
      8.48      -0.50       0.30
      8.50      -0.45       0.58
      8.74      -0.06       0.25
      8.63       0.08       0.41
      9.32       0.02       0.64
      9.34       0.09      -0.21
      8.95      -0.28       0.12
      9.11      -0.58       0.06
      9.47      -0.72       0.05
      9.41      -0.74       0.32
      9.98      -0.18      -0.26
      9.26      -0.68       0.14
      9.44      -0.67       0.06
      9.48      -0.51       0.20
      9.21      -0.66       0.24
      9.78      -0.72       0.01
      9.60      -1.27       0.13
      8.92      -0.86       0.51
      9.78      -0.64       0.30
     10.02      -0.24       0.07
      9.64       0.01       0.04
      9.50       0.15       0.22
     10.13       0.14      -0.20
     10.03       0.19      -0.12
      9.35       0.14       0.04
      9.49       0.08       0.20
      8.47      -0.41       0.44
      8.61      -0.33       0.76
      8.71      -0.23       0.60
      9.10       0.13       0.46
      9.11       0.23       0.38
      9.36       0.18      -0.01
      9.05       0.15       0.38
      9.20      -0.31       0.40
      9.73      -0.65       0.07
      9.49      -0.37       0.13
      9.91      -0.53       0.12
      9.72      -0.76       0.30
      9.56      -0.71       0.27
      9.89      -0.45       0.28
      9.48      -0.42       0.37
      9.28      -0.66      -0.09
      9.66      -0.76      -0.02
      9.69      -0.84       0.17
      9.54      -0.34       0.37
      9.61      -0.24       0.29
      9.89      -0.05       0.05
      9.74       0.08       0.15
     10.27       0.13       0.09
     10.10       0.31      -0.05
     10.35       0.33       0.14
     10.05       0.46       0.18
      9.35      -0.20       0.22
      9.18      -0.18       0.40
      8.76       0.30       0.38
      9.42       0.10       0.18
      9.26      -0.42       0.55
      9.21      -0.64       0.19
      9.22      -0.51       0.54
      9.23      -0.48       0.40
      9.39      -0.27       0.29
      9.79      -0.41       0.16
      9.73      -0.60       0.12
     10.02      -0.65       0.48
      9.88      -0.53       0.36
     10.17      -0.34       0.07
      9.87      -0.20       0.32
      9.48      -0.26       0.11
      9.45      -0.45      -0.03
      9.75      -0.50       0.18
     10.13      -0.37       0.25
      9.77      -0.16       0.32
      9.64      -0.21       0.08
      9.81      -0.32       0.11
      9.63      -0.08       0.23
      9.68       0.12      -0.14
      9.72       0.22      -0.01
      9.93       0.26       0.13
