# vtk DataFile Version 3.0
Low resolution, disturbed wind of XZ Slice at time = 33 seconds.
ASCII
DATASET STRUCTURED_POINTS
DIMENSIONS    47     1    12
ORIGIN     635.00    1000.00      15.00
SPACING      30.00      30.00      30.00
POINT_DATA             564
VECTORS DisXZ float
      5.31       1.39       0.47
      3.83       0.40       0.06
      4.00       0.07       0.47
      5.35      -0.58       0.23
      4.12      -0.39       0.20
      4.44      -0.19      -0.16
      4.45       0.04       0.04
      4.76       0.23       0.01
      5.63       0.23      -0.62
      5.14      -0.02       0.19
      5.62       0.79      -0.36
      4.84       0.13       0.11
      2.95       0.52       0.26
      3.91       0.36       0.17
      4.49       0.93       0.74
      5.58       0.58      -0.06
      5.77      -0.09       0.23
      5.74       0.02       0.05
      4.71      -0.43       0.57
      3.34       0.40       0.89
      4.75       0.03       0.08
      5.53      -0.15       0.31
      5.14      -0.98       0.23
      4.35      -0.26       0.16
      4.88      -0.34       0.75
      3.96      -0.69      -0.11
      4.77       1.09       0.45
      4.71       0.99       0.03
      4.87       0.68       0.07
      4.11       0.55      -0.11
      4.23      -0.56       0.18
      4.45       1.28      -0.46
      4.62       0.36      -0.20
      4.83      -0.69       0.11
      4.90       0.13      -0.19
      4.67       0.74      -0.13
      5.36       0.23      -0.28
      4.92       1.24       0.17
      5.55       0.04      -0.27
      6.02       0.52      -0.55
      6.22       0.50      -0.33
      5.05       0.37       0.22
      5.03       0.84       0.34
      5.31       0.11      -0.48
      4.84       0.04      -0.39
      4.90      -0.19       0.63
      5.03      -0.89      -0.26
      5.67       0.17       0.07
      5.02       0.13       0.30
      5.18       0.13       0.27
      5.57      -0.34       0.41
      5.80      -0.06      -0.18
      5.87       0.69       0.24
      5.99       0.39       0.13
      5.69       0.25      -0.05
      6.05       0.25       0.43
      6.39       0.28       0.25
      6.82       0.75      -0.31
      6.17      -0.30       0.41
      1.72      -0.21       0.35
      2.52      -0.01       0.34
      2.84      -0.21       0.56
      3.00       0.19       0.22
      2.94       0.82       0.36
      3.98      -0.13       0.34
      3.95      -0.69       0.26
      2.92       0.95       1.50
      6.16      -0.95      -0.32
      7.06      -1.04       0.48
      6.41      -0.58       0.56
      6.57      -0.67      -0.04
      6.56      -0.40       1.17
      5.96      -0.65       0.29
      5.78      -0.08      -0.17
      6.25      -0.35      -0.56
      6.51       1.30       1.01
      6.34       0.63       0.05
      6.32       0.39       0.06
      6.07       0.31      -0.02
      6.47       0.26       0.11
      6.38       0.20      -0.10
      6.08       0.67       0.06
      6.26       0.83       0.09
      6.02       0.20       0.03
      6.21      -0.07      -1.20
      5.94       0.83       0.05
      7.26       0.30       0.03
      7.59      -0.10      -0.93
      7.17       1.05      -0.13
      7.17       0.46       0.55
      5.97       0.58       0.36
      6.40       0.23      -0.40
      7.10       0.02      -0.47
      7.17      -0.73      -0.72
      7.21      -0.42       0.36
      7.16       0.38       0.43
      7.40       0.14       0.01
      6.28      -0.20       0.53
      6.41       0.17       0.38
      6.55       0.19       0.28
      6.74       0.20       0.06
      6.96       0.33      -0.06
      6.48       0.04       0.06
      6.47      -0.04       0.13
      6.65      -0.14       0.56
      6.55      -0.15       0.19
      2.79       0.10       0.23
      3.66       0.04       0.28
      3.95      -0.15       0.49
      3.60      -0.02       0.70
      3.79       0.19       0.85
      3.89       0.31       0.71
      3.94       0.29       0.51
      4.28      -0.53       0.77
      7.73      -0.62       0.42
      7.41       0.19       0.43
      7.47       0.07       0.55
      7.27      -0.41       0.22
      7.18      -0.24       0.19
      7.72      -0.24       0.28
      7.40      -0.36       0.27
      6.92      -0.11      -0.19
      6.55       0.56       0.30
      6.37       0.01       0.45
      7.00      -0.34       0.13
      7.19      -0.05      -0.06
      7.17      -0.42       0.34
      7.74      -0.09       0.34
      7.37       0.47      -0.06
      7.03       0.24      -0.39
      7.06       0.42       0.20
      6.42      -0.05       0.05
      6.11      -1.31       0.68
      7.52      -0.64      -0.09
      7.58      -0.71      -0.71
      6.65       0.99       0.44
      7.02       0.52      -0.26
      7.23       0.21      -0.01
      6.90       0.28      -0.40
      7.04       0.55      -0.14
      7.61       0.01      -0.31
      7.10      -1.14       0.06
      6.80      -1.05       0.46
      7.35       0.19       0.77
      8.12       0.10       0.45
      7.83       0.26      -0.20
      8.08       0.25       0.40
      6.92       0.29       0.32
      6.33      -0.00       0.22
      6.65       0.28       0.60
      6.72      -0.43       0.43
      7.02      -0.48       0.29
      7.33      -0.70       0.19
      7.70      -0.82      -0.08
      4.52      -0.64       0.76
      4.18      -0.45       0.91
      4.22      -0.13       0.85
      4.53       0.34       0.81
      4.70       0.28       0.75
      4.26       0.11       0.78
      4.70       0.64       0.10
      7.99       1.40      -0.04
      7.91       1.08       0.03
      8.06       0.58       0.56
      8.09      -0.11       0.51
      7.92       0.51       0.16
      8.23      -0.12       0.20
      8.49      -0.12      -0.02
      8.43       0.01      -0.24
      8.10       0.45       0.36
      7.07       0.53       0.25
      7.41       0.34       0.38
      8.17      -0.68      -0.15
      7.80      -0.18      -0.34
      7.85      -0.04      -0.26
      8.15      -0.00       0.60
      7.94       0.37      -0.48
      7.04       0.62       0.66
      7.29      -0.07      -0.36
      8.02      -0.16      -0.37
      8.21      -0.38      -0.20
      7.97      -0.37      -0.27
      7.46      -0.46       0.19
      7.76      -0.63       0.08
      8.25      -0.49      -0.49
      8.05      -0.18      -0.25
      7.85       0.38       0.12
      8.10       0.74      -0.13
      8.20      -1.06       0.44
      7.74      -1.07       0.72
      7.35      -1.34       0.68
      7.10      -0.88       0.65
      7.68       0.42       0.48
      6.78      -0.15       0.51
      6.27      -0.31       0.37
      6.45      -0.03       0.13
      7.25       0.24      -0.39
      7.35      -0.10       0.09
      7.33      -0.15       0.24
      7.45      -0.47       0.20
      7.47      -0.75       0.09
      3.15      -0.85       0.56
      3.54      -0.63       0.94
      3.22      -0.29       0.89
      3.44      -0.16       0.73
      3.89      -0.12       0.86
      4.26      -0.18       0.66
      4.48      -0.15       0.34
      4.23       0.20       0.05
      8.09       0.91       0.03
      8.16       0.79       0.11
      8.03       0.82       0.31
      8.62       0.38       0.48
      8.57      -0.12       0.26
      8.52      -0.10      -0.15
      8.27       0.09       0.03
      8.41       0.13       0.25
      8.24       0.31       0.16
      8.47       0.04       0.20
      8.56      -0.08      -0.26
      8.55       0.02      -0.02
      8.04      -0.27       0.10
      7.91      -0.14      -0.07
      8.02       0.09       0.20
      7.75      -0.76       0.71
      8.12      -0.74       0.26
      7.96      -1.02      -0.15
      8.54      -0.82       0.11
      8.57      -0.38       0.32
      8.63      -0.56       0.21
      8.89      -0.66       0.18
      8.24      -0.70      -0.22
      8.47      -0.41       0.34
      8.72      -0.08       0.03
      8.71      -0.21      -0.35
      8.60      -1.20       0.21
      7.72      -1.40       0.99
      7.89      -1.02       0.83
      7.59      -0.71       0.96
      7.42      -0.21       0.91
      7.41       0.18       0.85
      7.89       0.66      -0.12
      7.47       0.24      -0.59
      8.24       0.13      -0.71
      7.99       0.38      -0.51
      7.32      -0.16       0.21
      7.36       0.33       0.34
      7.53       0.01       0.29
      5.63      -0.56       0.26
      6.54      -0.11       0.20
      6.45      -0.02       0.36
      6.86       0.25       0.30
      7.16       0.06      -0.15
      6.31       0.07       0.22
      6.65      -0.41       0.35
      7.04      -0.65       0.34
      8.34      -0.02       0.26
      8.33       0.91       0.50
      8.07       0.75       0.60
      8.53       0.21       0.50
      8.65      -0.07       0.08
      8.59      -0.17       0.10
      8.77      -0.39       0.03
      9.02      -0.14       0.02
      8.78       0.17       0.24
      8.90       0.55      -0.31
      8.94       0.36      -0.26
      9.09      -0.60      -0.02
      8.24      -0.17       0.24
      8.03       0.02       0.18
      8.20       0.29       0.47
      7.98       0.04       0.39
      7.56       0.14       0.46
      7.97      -0.47       0.14
      8.22      -0.94       0.19
      8.42      -0.35       0.31
      8.31      -0.42       0.13
      8.37      -0.59      -0.21
      8.45      -0.90      -0.19
      8.66      -0.68       0.18
      8.82      -0.43       0.02
      9.10      -0.23      -0.09
      8.20      -0.49       0.02
      7.78      -0.79       0.61
      7.81      -0.81       0.83
      7.72      -0.48       1.10
      8.09      -0.17       1.17
      8.54       0.46       0.66
      8.69       0.01      -0.47
      8.69      -0.41      -1.07
      8.46      -0.54      -0.29
      8.46       0.06      -0.42
      8.26      -0.01       0.57
      7.94      -0.16       0.53
      8.19       0.13       0.65
      8.29      -0.14       0.36
      8.48      -0.26       0.04
      8.24      -0.80      -0.04
      8.52      -0.88      -0.38
      8.84      -0.75      -0.28
      8.63       0.29       0.41
      8.33       0.15       0.07
      8.88       0.23      -0.01
      9.17       0.31       0.13
      9.46       0.11       0.19
      8.88       0.66       0.49
      8.86       0.70       0.71
      9.06       0.39       0.43
      9.55      -0.29      -0.14
      9.15      -0.28       0.12
      9.14      -0.37       0.20
      8.75      -0.26       0.21
      9.12      -0.60      -0.32
      9.21      -0.31      -0.42
      8.57       0.17       0.46
      8.52      -0.26       0.42
      8.33      -0.16       0.04
      8.81      -0.03       0.27
      9.41       0.59       0.12
      8.36       0.35       0.60
      8.42      -0.13      -0.18
      8.69      -0.64      -0.44
      9.00      -0.73       0.16
      9.03      -0.53       0.13
      9.31      -0.54      -0.04
      9.27      -0.72      -0.08
      9.45      -1.03      -0.08
      9.76      -1.00       0.05
      9.87      -0.75      -0.04
      8.78      -0.54       0.07
      8.50      -0.52       0.65
      8.45      -1.13       1.00
      8.33      -1.82       0.82
      8.89      -1.80       0.77
      8.86      -1.52       0.42
      9.66      -1.70      -0.67
      9.54      -0.89      -0.72
      8.50       0.17       0.01
      8.68      -0.20       0.22
      8.60      -0.99       0.16
      8.18      -0.64       0.46
      8.09      -0.33       0.59
      8.42      -0.95       0.25
      8.33      -1.38       0.24
      9.61      -0.91       0.07
      8.79      -1.02      -0.07
      8.36      -1.33       0.18
      8.22      -1.29       0.32
      8.13      -1.04       0.22
      8.12      -0.97       0.25
      8.38      -1.17       0.28
      8.79      -0.85       0.32
      8.95      -0.04       0.58
      9.17      -0.23       0.68
      9.20      -0.47       0.52
      9.03      -0.27       0.41
      8.81      -0.61       0.28
      8.72      -0.92       0.41
      8.78      -0.76      -0.15
      8.62      -0.69      -0.55
      8.91      -0.40      -0.45
      8.96       0.03       0.13
      9.38      -0.25       0.22
      9.72      -0.07      -0.09
      9.80      -0.06      -0.24
      9.00      -0.01       0.32
      9.07       0.31       0.47
      9.25       0.26      -0.13
      9.35      -0.18      -0.43
      9.02      -0.18      -0.10
      9.11      -0.37       0.10
      9.38      -0.66       0.08
      9.60      -0.98      -0.12
      9.52      -1.06      -0.24
      9.54      -0.81      -0.05
      9.78      -0.60      -0.24
      9.00      -0.06       0.09
      8.79      -0.40       0.26
      8.63      -0.10       0.70
      8.71      -0.37       0.57
      8.72      -0.93       0.60
      9.01      -1.47       0.57
      9.21      -0.91       0.26
      9.36      -0.17       0.12
      8.99      -0.29       0.10
      8.71      -0.22       0.24
      8.93      -0.39       0.49
      9.13      -0.59       0.49
      8.87      -0.70       0.12
      9.01      -0.77       0.32
      9.48      -0.87      -0.01
      9.25      -1.37       0.01
      9.72      -0.80       0.42
      9.31      -0.50       0.31
      8.38      -0.86       0.38
      8.43      -1.13       0.22
      8.75      -1.08       0.10
      8.84      -1.17       0.17
      8.53      -1.06       0.27
      8.47      -0.75       0.35
      8.57      -0.79       0.46
      8.82      -1.08       0.34
      9.12      -1.03       0.31
      8.91      -0.92       0.80
      8.85      -1.02       0.74
      9.09      -1.14       0.02
      9.20      -0.77      -0.56
      8.90      -0.88      -0.41
      8.68      -0.82      -0.26
      8.85      -0.39      -0.10
      9.32       0.16      -0.05
      9.25       0.08      -0.04
      8.94       0.06       0.05
      9.06      -0.11      -0.03
      9.42      -0.18      -0.22
      9.38      -0.15      -0.35
      9.31      -0.29      -0.36
      9.62      -0.52      -0.34
      9.86      -0.45      -0.36
      9.96      -0.83      -0.39
      9.83      -0.96      -0.42
      9.80      -0.89      -0.02
      9.89      -1.02      -0.09
      9.36       0.20       0.07
      9.54      -0.16      -0.05
      9.54      -0.25       0.47
      9.22      -0.41       0.82
      9.08      -0.46       0.63
      8.89      -0.11       0.38
      9.05      -0.09       0.43
      9.26      -0.47       0.36
      8.70      -0.38       0.34
      8.75      -0.50       0.56
      9.10      -0.43       0.95
      9.24      -0.43       0.70
      9.10      -0.81       0.35
      9.24      -0.49       0.12
      9.50      -0.36      -0.15
      9.47      -0.98       0.44
      9.00      -0.83       0.71
      8.96      -0.23       0.71
      9.19      -0.09       0.20
      9.34      -0.25      -0.09
      9.26      -0.49       0.10
      9.20      -0.51       0.26
      9.51      -0.58       0.09
      9.34      -0.74       0.09
      9.25      -1.01       0.35
      9.41      -1.04       0.09
      9.60      -1.06       0.18
      9.89      -1.27       0.33
     10.63      -1.52       0.08
     10.47      -1.00      -0.10
      9.81      -0.84      -0.20
      9.49      -1.08       0.02
      9.33      -0.72       0.10
      9.14      -0.35      -0.11
      8.89      -0.16      -0.22
      9.04      -0.02       0.07
      9.26       0.03       0.13
      9.29       0.09       0.18
      9.34      -0.13       0.26
      9.72      -0.50       0.04
     10.09      -0.51      -0.31
     10.13      -0.27      -0.39
     10.04      -0.33      -0.27
     10.16      -0.58      -0.12
      9.96      -0.81      -0.18
      9.95      -0.93      -0.27
     10.19      -0.73      -0.10
      9.86      -0.20       0.10
      9.82       0.09       0.12
      9.57       0.01       0.27
      9.21      -0.21       0.46
      9.50      -0.35       0.48
      9.70      -0.14       0.34
      9.21      -0.33       0.18
      8.99      -0.84       0.31
      9.29      -1.02       0.44
      9.45      -0.65       0.39
      9.24      -1.03       0.44
      9.20      -1.58       0.56
      9.69      -0.83       0.80
      9.66      -0.06       0.35
      8.91      -0.44       0.13
      8.59      -0.55       0.74
      8.89      -0.44       0.91
      9.35      -0.36       0.52
      9.80      -0.20       0.25
     10.08      -0.39       0.23
      9.91      -0.54      -0.04
     10.16      -0.53       0.18
      9.82      -0.60       0.21
      9.33      -0.67       0.35
      9.44      -0.95       0.36
      9.29      -1.06       0.10
      9.46      -1.11       0.05
     10.03      -1.07       0.01
      9.99      -1.17       0.04
      9.77      -1.10       0.16
      9.73      -0.92       0.39
      9.65      -0.86       0.10
      9.72      -0.94       0.05
      9.81      -0.85      -0.07
      9.21      -0.99      -0.48
      8.95      -0.83      -0.09
      8.97      -0.50       0.07
      9.00      -0.23       0.06
      9.19      -0.27       0.04
      9.60      -0.44      -0.18
     10.13      -0.50      -0.44
     10.49      -0.64      -0.28
     10.15      -0.52      -0.09
      9.92      -0.36       0.11
     10.00      -0.33      -0.00
     10.16      -0.45      -0.09
     10.15      -0.59      -0.06
      9.62      -0.21       0.23
      9.53      -0.42       0.39
      9.53      -0.09      -0.02
      9.66      -0.06       0.05
      9.52      -0.39       0.20
      9.24      -0.43       0.26
      9.13      -0.44       0.41
      9.25      -0.31       0.58
      9.36      -0.12       0.65
      9.26      -0.07       0.48
      9.17      -0.01       0.41
      9.27       0.03       0.55
      9.10       0.10       0.65
      8.94       0.07       0.53
      9.05      -0.06       0.30
      9.08      -0.09       0.29
      9.35      -0.02       0.27
      9.64       0.32       0.15
      9.73       0.50       0.20
      9.97       0.37       0.34
     10.02       0.26      -0.08
      9.96      -0.07      -0.17
      9.97      -0.45       0.20
      9.84      -0.44       0.46
      9.82      -0.48       0.28
      9.84      -0.72       0.21
      9.70      -0.71       0.30
      9.71      -0.76       0.09
      9.77      -0.83      -0.06
      9.77      -0.99       0.14
      9.88      -1.16       0.11
      9.99      -1.33      -0.29
      9.88      -1.15      -0.30
      9.76      -0.98      -0.07
      9.74      -0.93      -0.01
      9.81      -0.80      -0.07
      9.73      -0.71       0.07
      9.65      -0.70       0.21
      9.74      -0.72       0.22
      9.91      -0.86       0.05
      9.83      -0.88      -0.14
      9.86      -0.63      -0.17
     10.08      -0.60      -0.26
     10.16      -0.55      -0.21
     10.34      -0.61      -0.09
     10.50      -0.69      -0.27
     10.16      -0.92      -0.18
