# vtk DataFile Version 3.0
Low resolution, disturbed wind of YZ Slice at time = 18 seconds.
ASCII
DATASET STRUCTURED_POINTS
DIMENSIONS     1    26    12
ORIGIN    1630.00     635.00      15.00
SPACING      30.00      30.00      30.00
POINT_DATA             312
VECTORS DisYZ float
      5.04      -1.07      -0.27
      4.38       0.35      -0.05
      7.41      -0.21      -0.69
      6.60       1.17       0.14
      4.63       0.26       0.01
      5.79      -0.34      -0.01
      5.69       0.15      -0.60
      3.21       0.43       0.36
      5.98       0.43      -0.41
      4.26      -0.01       0.03
      5.54       0.34      -0.65
      4.13       1.29       0.15
      4.98       0.50      -0.28
      4.28      -0.04      -0.03
      4.09       0.17       0.58
      5.03       1.17       0.68
      4.31       0.83      -0.27
      5.16      -0.83       0.60
      7.31      -0.30       0.02
      6.67       0.32       0.17
      6.16      -0.08       0.47
      6.66       0.82       0.13
      6.24      -0.26       0.44
      5.52      -0.34       0.54
      6.80       0.90       0.20
      6.50       0.96       0.19
      6.28      -0.07       0.03
      6.45       0.05       0.12
      7.10       0.27      -0.37
      6.46       0.14       0.09
      6.76      -0.38       0.21
      6.89       0.51       0.01
      6.61       0.67       0.34
      5.99       0.61      -0.12
      7.55       0.53      -0.23
      6.02       0.36       0.04
      6.04       0.45       0.66
      6.32       0.24      -0.30
      6.26       0.08      -0.33
      5.66      -0.58      -0.12
      6.83       0.45      -0.86
      7.12      -0.14       0.07
      6.45      -0.26      -0.04
      5.79       0.50       0.30
      7.51      -0.19       0.15
      6.99       0.29       0.36
      8.36       1.20      -0.32
      7.56       0.72      -0.33
      6.90       0.60       0.32
      6.91       0.30       0.50
      7.23      -1.17       0.33
      8.20      -0.50      -0.11
      6.91      -0.27       0.79
      8.11       0.56      -0.19
      7.97       1.08      -0.39
      7.23       0.29       0.45
      7.52       0.01       0.01
      7.83       0.09      -0.27
      7.70       0.51       0.21
      8.06       0.11      -0.07
      7.19      -0.26       0.05
      7.18      -0.07      -0.04
      6.07      -0.40      -0.06
      6.20      -0.09       0.30
      6.38       0.18       0.69
      6.89       0.49      -0.34
      7.45      -0.21      -0.92
      7.97      -0.06       0.00
      7.14      -0.30       0.11
      7.31      -0.73       0.87
      7.37      -0.10       0.57
      7.96       0.59       0.05
      7.20       0.69       0.35
      7.62       0.20      -0.15
      7.68      -0.25      -0.07
      7.41       0.08       0.52
      7.83       0.33       0.26
      8.32      -0.22      -0.14
      7.31       0.45       0.20
      7.77       0.67      -0.50
      7.38       0.34       0.51
      7.03       0.38       0.31
      7.45       0.86      -0.10
      8.10       0.47       0.13
      8.25       0.83      -0.01
      7.68       0.63       0.51
      8.30       0.09      -0.02
      8.41       0.24      -0.32
      7.72      -0.35       0.16
      7.32      -0.33       0.65
      7.53       0.31       0.15
      8.02      -0.48      -0.30
      8.26      -0.82      -0.07
      8.34      -1.16      -0.03
      6.76      -0.45       0.96
      6.96      -0.32       0.91
      7.33       0.48       0.04
      7.54       0.21      -0.30
      8.24       0.21       0.00
      8.27      -0.49      -0.10
      8.03       0.05       0.31
      8.38      -0.51       0.35
      8.30      -0.75       0.30
      8.93      -0.55      -0.19
      7.99       0.18       0.57
      8.33       0.02       0.17
      8.90      -0.33      -0.46
      8.27      -0.04      -0.15
      8.60      -0.02      -0.39
      8.77      -0.26       0.15
      9.17       0.58      -0.10
      8.19       0.57       0.45
      8.29       0.74      -0.13
      8.37       0.11       0.28
      8.26      -0.30       0.35
      8.02      -0.02       0.50
      7.73      -0.73       0.20
      8.74      -0.89       0.18
      9.03      -0.71      -0.42
      9.73      -0.72      -0.53
      8.66      -0.97       0.08
      7.72      -0.61       0.70
      8.75      -0.30      -0.05
      8.61      -0.95      -0.09
      9.04      -1.04      -0.42
      8.46      -0.17       0.38
      9.13      -0.21       0.38
      8.13       0.21       1.06
      8.53      -0.75       0.07
      8.41      -0.43      -0.15
      8.72      -0.28       0.01
      8.70      -0.44      -0.26
      8.32       0.03       0.18
      8.78      -0.59      -0.12
      8.55      -0.56      -0.59
      8.51      -0.01       0.16
      8.52      -0.29      -0.13
      8.48      -0.37       0.12
      8.60      -0.30       0.21
      9.41      -0.44      -0.19
      8.31      -0.44       0.17
      7.97      -0.78       0.11
      7.83      -0.23       0.72
      8.43      -0.75      -0.28
      9.20      -0.71      -0.55
      8.73      -1.08      -0.53
      9.27      -0.34       0.42
      8.42      -0.41       0.33
      8.90      -0.37       0.06
      8.83      -0.65      -0.06
      9.20      -0.74      -0.53
      8.77      -0.79       0.05
      8.84      -0.16       0.19
      8.94       0.33       0.54
      8.29       0.24       0.61
      8.71      -0.27      -0.15
      8.38      -0.71       0.08
      8.63      -0.74      -0.26
      8.58      -0.70      -0.12
      8.36      -0.79       0.14
      8.49      -0.55       0.15
      9.17      -0.11      -0.22
      8.71       0.25       0.04
      8.29       0.27       0.37
      8.65       0.04       0.42
      9.60      -0.60      -0.05
      9.15      -0.27       0.26
      8.87      -0.16       0.14
      8.32      -0.02       0.64
      8.65      -0.11      -0.19
      9.43      -0.63      -0.37
      9.75      -0.47      -0.40
      8.64      -1.02      -0.05
      8.86      -0.52       0.13
      9.02      -0.80       0.34
      9.20      -0.50      -0.57
      9.49      -0.19      -0.48
      9.76      -0.13      -0.27
      8.83      -0.60      -0.11
      9.08      -0.81       0.36
      8.84      -0.32       0.45
      9.29      -0.67       0.12
      8.52      -0.36       0.30
      8.82      -0.61       0.17
      9.10      -0.60      -0.11
      9.03      -0.61       0.00
      9.77      -0.39      -0.49
      8.75      -0.63      -0.56
      8.70      -0.31      -0.76
      8.31      -0.07       0.45
      8.88       0.01       0.36
      8.30       0.41      -0.06
      9.06      -0.00       0.24
      9.05       0.07       0.42
      9.23       0.17       0.27
      9.14       0.12      -0.08
      9.61       0.11      -0.23
      9.67      -0.37      -0.13
      9.58      -0.76      -0.35
      9.19      -0.62       0.07
      9.29      -0.56       0.16
      9.45      -0.70      -0.64
      9.62      -0.87      -0.54
      9.59      -0.76      -0.33
      9.67      -0.46       0.14
      9.07      -0.38       0.27
      8.94      -0.07       0.34
      9.22      -0.28       0.26
      8.99      -0.93       0.57
      9.11      -0.55      -0.40
      9.85      -0.76      -0.33
      9.57      -0.82       0.18
      9.92      -0.95      -0.51
      9.13      -0.50      -0.46
      9.15      -0.63      -0.53
      8.72      -0.37      -0.36
      8.13       0.18      -0.03
      8.30       0.14       0.23
      8.90       0.44       0.13
      8.96      -0.02       0.28
      9.24      -0.17      -0.09
      9.33      -0.23      -0.08
     10.11      -0.72      -0.30
      9.60      -0.59       0.03
      9.51      -0.35       0.13
      9.94      -0.54      -0.24
     10.02      -0.47      -0.04
      9.41      -0.78      -0.06
      9.45      -0.52      -0.59
      9.83      -0.93      -0.40
      9.39      -0.71       0.12
     10.08      -0.22       0.03
      9.56      -0.12       0.56
      9.32      -0.01       0.61
      8.41      -0.48       0.43
      9.23      -0.37      -0.14
      9.07      -0.32      -0.16
      9.79      -1.05      -0.01
      9.33      -0.68       0.10
      9.86      -0.81      -0.35
      9.81      -1.36      -0.14
      9.40      -0.92      -0.02
      8.40      -0.61       0.27
      9.27      -0.39       0.52
      9.53       0.22      -0.07
      9.53       0.17       0.10
      9.28       0.02       0.31
      9.63      -0.60      -0.11
     10.25      -0.89      -0.45
     10.12      -0.69      -0.13
      9.70      -0.91      -0.22
      9.92      -0.99      -0.29
      9.79      -0.61      -0.16
      9.45      -0.68      -0.08
     10.21      -1.22      -0.08
     10.27      -1.10      -0.25
      9.92      -1.03      -0.11
      9.44      -0.23       0.25
      9.57       0.02       0.11
      9.44       0.24       0.59
      9.01      -0.97       0.17
      9.05      -0.72       0.07
      9.25      -0.87       0.27
      9.74      -0.77       0.15
      9.67      -0.85      -0.19
     10.19      -0.42      -0.45
      9.89      -1.15      -0.14
      8.85      -1.09       0.41
      9.49      -0.59      -0.22
      9.10      -0.14       0.05
      9.09      -0.14       0.09
      8.96      -0.15       0.33
      9.08      -0.09       0.07
      9.76      -0.83       0.09
     10.01      -0.94      -0.18
      9.58      -1.12      -0.05
      9.79      -0.78       0.08
      9.34      -0.67      -0.05
      9.10      -0.83       0.15
      9.45      -0.87      -0.04
      9.89      -0.73       0.06
      9.75      -0.77      -0.30
      9.68      -0.86      -0.22
      9.31      -0.54       0.01
      9.73      -0.14       0.13
      9.77      -0.12       0.37
      9.13      -0.72       0.45
      9.22      -0.48       0.53
      9.36      -0.54      -0.04
      9.39      -0.90       0.53
      9.98      -0.31       0.04
     10.06      -0.81      -0.09
      9.99      -0.80      -0.18
      9.69      -1.02       0.28
      9.73      -0.98      -0.35
      9.74      -0.68      -0.04
      9.53      -1.27      -0.04
      9.76      -0.78      -0.09
      9.71      -0.78       0.08
      9.73      -0.82       0.18
     10.03      -0.59      -0.14
     10.25      -0.83      -0.22
     10.11      -1.02      -0.18
     10.09      -0.80      -0.31
     10.05      -0.64       0.18
      9.46      -1.19       0.18
      9.52      -1.10       0.11
     10.11      -1.03      -0.19
     10.83      -0.77      -0.36
     10.22      -0.71      -0.18
     10.39      -1.03       0.12
     11.05      -0.83       0.00
