# vtk DataFile Version 3.0
Low resolution, disturbed wind of YZ Slice at time = 21 seconds.
ASCII
DATASET STRUCTURED_POINTS
DIMENSIONS     1    26    12
ORIGIN    1630.00     635.00      15.00
SPACING      30.00      30.00      30.00
POINT_DATA             312
VECTORS DisYZ float
      5.05      -0.94      -0.06
      4.46       0.86      -0.37
      7.32      -0.45      -0.79
      6.20       0.57       0.14
      4.65       0.46       0.00
      5.86      -0.42       0.01
      5.89      -0.33      -0.18
      3.73       0.34       0.56
      5.36       0.29       0.43
      3.68       0.28       0.07
      5.80       0.01      -0.52
      3.91       0.85       0.11
      5.22       0.76      -0.29
      4.05       0.39       0.16
      4.99      -0.81      -0.01
      5.12      -0.11      -0.07
      4.20       0.74       0.89
      5.13      -0.30       0.26
      8.08       0.06      -0.88
      6.94       0.51      -0.25
      6.00      -0.05       0.45
      5.94       0.28       0.00
      6.70      -0.57       0.13
      6.37       0.22       0.11
      6.99       0.33      -0.21
      5.73       0.30       0.40
      6.82      -0.32      -0.15
      6.54       0.61       0.12
      7.22       0.12      -0.54
      6.32      -0.17       0.28
      6.60      -0.42       0.18
      6.63       0.08      -0.07
      6.87       0.29       0.25
      5.91       0.76       0.06
      7.48       0.32      -0.30
      5.98      -0.14       0.89
      6.10       0.32      -0.59
      6.02       0.45       0.57
      5.90       0.06       0.35
      5.29       0.34       0.31
      7.00       0.19      -0.61
      7.54      -0.42       0.19
      6.25      -1.03       0.49
      7.26      -1.06       0.24
      7.42      -0.03      -0.10
      7.82       0.49      -0.26
      8.17       0.76      -0.36
      7.27       0.71      -0.25
      6.96       0.59       0.19
      6.94       0.65       0.44
      7.28      -0.22      -0.08
      7.87      -0.23      -0.52
      7.74      -0.01       0.19
      8.07       0.87       0.01
      7.99       0.70       0.08
      7.29       0.17       0.28
      7.71      -0.24       0.19
      8.03       0.11      -0.28
      7.54       0.32       0.50
      7.92       0.75       0.30
      7.39       0.04       0.17
      6.88      -0.55       0.11
      6.16      -0.43      -0.06
      6.66      -0.21      -0.20
      6.15       0.04       0.35
      7.37       0.70      -0.37
      7.49       0.56      -0.75
      8.15       0.12       0.46
      6.79      -0.61       0.51
      6.86      -0.18       0.29
      8.05      -0.25      -0.74
      7.88      -0.01      -0.52
      6.92       0.51       0.20
      7.33      -0.25      -0.24
      7.78      -0.10      -0.04
      7.26       0.04       0.43
      7.96       0.32       0.09
      7.96      -0.01       0.21
      7.54       0.69       0.15
      7.67       0.90      -0.15
      7.05       0.21       0.49
      6.87       0.18       0.37
      7.38       0.90       0.05
      7.75       0.49       0.10
      8.20       0.96       0.23
      8.00       0.58       0.37
      7.98       0.58       0.61
      7.88      -0.06      -0.30
      7.15      -0.69       0.09
      7.95      -0.24      -0.59
      6.92       0.34       0.79
      8.21      -0.48      -0.22
      8.48      -1.10       0.01
      8.06      -0.77      -0.22
      7.31      -0.92       0.64
      8.70      -0.07       0.03
      8.37      -0.23      -0.43
      7.91      -0.37      -0.48
      7.70      -0.95       0.06
      8.97      -0.60       0.10
      8.49      -0.09       0.35
      8.13      -0.52       0.29
      8.26      -0.55       0.35
      8.64      -0.53       0.16
      7.99      -0.25       0.25
      7.90      -0.41      -0.01
      8.45      -0.92      -0.55
      8.45      -0.55      -0.22
      8.20      -0.11       0.07
      8.75      -0.34       0.09
      8.66      -0.10      -0.17
      8.02       0.20       0.37
      8.43       0.12       0.21
      8.38       0.05       0.28
      8.57       0.02       0.06
      8.15      -0.21       0.13
      7.61      -0.61       0.65
      8.38      -0.51       0.20
      8.91      -0.65      -0.40
      9.54      -1.17      -0.64
      8.24      -0.54       0.57
      7.91      -0.28       0.87
      8.54      -0.73       0.02
      8.50      -0.89      -0.03
      9.13      -0.99      -0.71
      9.27      -0.59      -0.17
      9.09      -0.47      -0.00
      8.08       0.31       0.82
      8.67      -0.57       0.00
      8.47      -0.23      -0.05
      8.85      -0.19      -0.08
      8.33      -0.63      -0.21
      8.10      -0.26      -0.28
      8.69      -0.69      -0.59
      8.45      -0.61      -0.20
      8.61       0.03      -0.51
      8.70      -0.20       0.07
      8.64      -0.10       0.25
      8.42       0.04       0.19
      9.33      -0.35      -0.01
      8.26      -0.57       0.13
      7.73      -0.82       0.27
      7.78      -0.03       0.46
      7.95       0.33      -0.16
      8.51      -0.18      -0.35
      9.14      -0.83      -0.88
      8.96      -0.03       0.09
      8.77       0.02       0.58
      8.87      -0.26       0.08
      8.64      -0.59      -0.11
      9.13      -0.70      -0.27
      8.71      -0.66      -0.02
      8.86      -0.38      -0.11
      8.76       0.01       0.47
      8.26       0.19       0.49
      8.62      -0.01       0.12
      8.18      -0.65      -0.01
      8.39      -0.81       0.03
      8.62      -0.71      -0.33
      8.65      -0.55       0.02
      8.66      -0.56       0.20
      9.36      -0.06      -0.32
      8.74       0.01      -0.24
      8.56       0.02       0.10
      8.58       0.10       0.31
      9.76      -0.43       0.09
      9.41      -0.09       0.29
      9.07      -0.26       0.28
      8.73       0.06       0.50
      8.72       0.63       0.50
      9.18      -0.07      -0.32
      9.51      -0.56      -0.73
      8.42      -0.75      -0.19
      8.79      -0.30       0.47
      8.86      -0.41       0.59
      9.04      -0.43      -0.50
      9.47      -0.31      -0.41
      9.24      -0.38      -0.19
      9.11      -0.60      -0.37
      9.03      -0.69       0.27
      8.81      -0.16       0.47
      9.19       0.10       0.27
      8.67      -0.67       0.24
      8.98      -0.47      -0.20
      9.11      -0.16      -0.47
      9.01      -0.42       0.10
      9.47      -0.25      -0.09
      8.31      -0.55      -0.85
      8.72      -0.48      -0.44
      8.52      -0.18       0.02
      8.52      -0.01       0.28
      8.35      -0.02      -0.30
      9.08      -0.20       0.55
      9.23       0.15       0.29
      9.02       0.02       0.51
      8.60       0.48       0.40
      9.43       0.17      -0.00
      9.46      -0.26      -0.25
      9.76      -0.73      -0.42
      8.75      -0.62       0.24
      9.09      -0.78       0.27
      9.37      -0.82      -0.52
      9.70      -0.88      -0.38
      9.65      -0.98      -0.26
     10.00      -0.85      -0.25
      9.53      -0.09       0.02
      8.92       0.14       0.41
      9.08       0.04       0.29
      9.25      -0.80       0.19
      9.07      -0.45      -0.48
      9.59      -1.13      -0.26
      9.56      -0.97       0.28
     10.19      -0.85      -0.56
      9.62      -0.74      -0.37
      9.09      -1.17      -0.45
      8.85      -0.99      -0.57
      8.21      -0.75      -0.08
      9.01      -0.38      -0.00
      8.81       0.12       0.28
      8.69      -0.06       0.41
      9.03      -0.03      -0.01
      9.01      -0.19       0.16
      9.68      -0.50       0.08
      9.77      -0.38      -0.31
      9.43      -0.36      -0.01
      9.95      -0.27      -0.31
      9.87      -0.46      -0.10
      9.25      -0.66      -0.21
      9.60      -0.75      -0.36
      9.84      -1.13       0.04
      9.98      -0.76      -0.35
     10.45      -0.32      -0.27
      9.72      -0.23       0.22
      9.22       0.23       0.44
      8.33      -0.33       0.16
      9.57      -0.73       0.42
      9.30      -0.80      -0.04
      9.83      -1.12      -0.15
      9.76      -0.81      -0.29
      9.40      -0.87      -0.42
     10.35      -1.20      -0.27
      9.90      -0.93      -0.11
      8.73      -0.55       0.07
      9.74      -0.22      -0.00
      9.50      -0.06      -0.36
      9.43      -0.07       0.09
      9.36       0.04       0.22
      9.13      -0.02      -0.07
     10.05      -0.65      -0.35
     10.16      -0.49      -0.29
      9.89      -0.82      -0.27
      9.77      -0.70      -0.27
      9.76      -0.52      -0.05
      9.38      -0.60       0.13
     10.30      -1.29       0.31
     10.15      -1.33      -0.10
     10.02      -1.08      -0.05
      9.43      -0.52       0.00
      9.62      -0.19       0.18
      9.67      -0.08       0.40
      8.90      -0.91       0.21
      9.17      -1.09       0.26
      9.33      -0.74       0.14
      9.58      -0.75      -0.09
      9.55      -0.45      -0.23
      9.86      -0.55       0.00
      9.62      -1.21      -0.23
      9.14      -1.06       0.01
      9.64      -0.97      -0.11
      9.09      -0.49      -0.21
      9.22      -0.31       0.12
      8.86      -0.41       0.14
      8.95      -0.23       0.12
      9.57      -0.66       0.29
     10.09      -0.59      -0.26
      9.54      -0.93      -0.03
     10.05      -0.49       0.15
      9.50      -0.51       0.05
      9.23      -0.75       0.10
      9.42      -0.54      -0.03
      9.79      -0.76       0.10
      9.60      -0.74      -0.12
      9.73      -0.65      -0.19
      9.56      -0.55      -0.07
     10.06      -0.29       0.27
      9.62      -0.27       0.28
      9.16      -0.57       0.24
      9.38      -0.27       0.23
      9.36       0.22      -0.15
      9.41      -0.30       0.29
      9.96      -0.30      -0.15
      9.84      -0.80      -0.13
      9.78      -1.08      -0.42
      9.73      -0.77      -0.21
      9.92      -0.93      -0.25
      9.48      -0.67      -0.13
      9.80      -1.01       0.06
      9.64      -0.93       0.09
      9.63      -0.82       0.11
      9.65      -0.63       0.19
     10.32      -0.59      -0.01
     10.03      -1.01      -0.17
     10.08      -1.09      -0.15
     10.17      -0.95      -0.34
      9.86      -0.69       0.41
      9.66      -0.84       0.30
      9.72      -0.83       0.16
     10.54      -0.79       0.03
     10.57      -1.30      -0.32
     10.67      -0.94      -0.19
     10.28      -1.53       0.18
     10.71      -0.78      -0.05
