# vtk DataFile Version 3.0
Low resolution, disturbed wind of XY Slice at time = 45 seconds.
ASCII
DATASET STRUCTURED_POINTS
DIMENSIONS    47    26     1
ORIGIN     635.00     635.00      85.00
SPACING      30.00      30.00      30.00
POINT_DATA            1222
VECTORS DisXY float
      7.84      -0.39       0.06
      8.46       0.44      -0.09
      8.73       0.25       0.47
      8.80       0.01       0.74
      8.23      -0.38       0.22
      8.37      -0.18      -0.20
      8.52      -0.81       0.20
      8.85       0.14      -0.01
      9.00       0.25       0.33
      8.93       0.77      -0.21
      8.73       0.16       0.51
      8.50       0.67       0.84
      9.03       0.59       0.10
      8.72       0.27       0.06
      8.00       0.14       0.51
      7.55       0.41       1.05
      8.16       0.72       0.58
      8.50       0.35       0.45
      8.53       0.18       0.37
      8.54       0.14      -0.02
      8.80      -0.06      -0.03
      8.73      -0.05      -0.43
      8.72       0.63       0.30
      8.98       0.43       0.00
      8.93      -0.21       0.30
      8.77      -0.17      -0.49
      8.76       0.96       0.63
      8.97       0.82       0.10
      8.91       1.09      -0.39
      7.53       0.51       0.38
      7.94       0.66       0.67
      8.25       0.52      -0.26
      8.76       0.48      -0.40
      8.19       0.00      -0.21
      8.62       0.22       0.28
      8.42      -0.51      -0.44
      8.51       0.59       0.52
      7.73       0.04       0.45
      7.67       0.07      -0.19
      7.47      -0.20       0.46
      7.02       0.49       0.25
      6.84      -0.40       0.50
      6.87      -0.51       0.41
      6.75       0.21       0.16
      6.92      -0.37      -0.32
      6.70      -0.09       0.42
      6.41      -0.01       0.21
      8.31       0.02       0.09
      7.55      -0.23       0.13
      7.39      -0.66       0.22
      7.67      -0.45       0.08
      7.49      -0.11       0.34
      7.61      -0.63      -0.10
      7.85      -1.13      -0.06
      8.12      -0.49      -0.52
      8.28       0.39       0.03
      7.67       0.75       0.77
      7.44       0.21       0.87
      7.50       0.20       0.71
      7.47       0.31       0.05
      7.81       0.59       0.61
      8.05       0.39       0.34
      8.15       0.68       0.53
      7.78       0.31       0.22
      7.86       0.45      -0.25
      7.81      -0.09       0.11
      8.14       0.20      -0.40
      7.52      -0.51       0.12
      7.44       0.26       0.62
      7.46       0.65       0.39
      8.11      -0.07      -0.18
      8.91       0.08      -0.05
      8.53       0.18      -0.09
      8.66       0.03       0.18
      8.68       1.13      -0.17
      8.70       1.23      -0.10
      8.84       0.85       0.24
      8.89       0.47      -0.19
      8.15       0.60      -0.10
      8.32       0.43       0.21
      8.40       0.16       0.20
      8.11      -0.09       0.42
      8.26      -0.73      -0.34
      8.06       1.09       0.42
      8.13       0.60       0.15
      8.97      -0.05       0.13
      7.63       0.76       0.06
      7.73       0.66      -0.11
      8.00      -0.13       0.11
      7.63      -0.39       0.02
      7.55       0.04      -0.10
      7.21      -0.55      -0.05
      7.61      -0.32      -0.13
      7.86       0.63      -0.45
      7.22      -0.25       0.16
      7.80      -0.31       0.27
      7.87      -0.94      -0.54
      8.00      -0.79      -0.13
      8.04      -0.24      -0.24
      8.07      -0.38      -0.56
      7.75      -1.01       0.13
      7.78      -0.23       0.28
      7.67       0.97      -0.05
      8.16       0.87       0.42
      7.83       0.21       0.70
      7.34       0.15       0.02
      7.27       0.20      -0.04
      7.37       0.48       0.13
      7.45       0.37       0.38
      7.50       0.20       0.40
      7.65       0.15       0.37
      7.40       0.13       0.44
      7.68      -0.21       0.04
      7.95       0.31      -0.12
      8.06       0.31       0.19
      7.79       0.01       0.33
      8.71       0.24      -0.02
      8.60       0.14       0.11
      7.96      -0.20      -0.02
      8.09       0.20       0.44
      8.59       0.52       0.14
      8.51       0.44      -0.62
      8.64       0.92      -0.17
      8.89       0.92      -0.40
      8.54       0.28      -0.35
      8.01       1.04       0.45
      8.44       1.06       0.20
      8.87       0.43       0.84
      8.20      -0.24      -0.11
      7.71      -0.49       0.31
      7.85       0.49       0.28
      8.04       0.60      -0.07
      7.61       0.27       0.64
      8.39       0.59       0.02
      7.99       0.61       0.00
      7.20       0.01       0.38
      7.30      -0.27       0.16
      7.42      -0.54       0.49
      7.43      -0.72       0.45
      7.19      -0.14       0.18
      7.55       0.36      -0.57
      6.58      -0.13       0.63
      6.92      -0.89       0.45
      7.32      -0.23       0.13
      7.09      -0.67      -0.15
      7.10      -1.00      -0.20
      6.83      -0.52      -0.17
      6.75      -0.46       0.69
      7.09      -0.12       0.75
      7.01      -0.62       0.91
      7.19       0.17       0.33
      7.05       0.16      -0.12
      7.22       0.30       0.43
      7.06       0.11       0.73
      7.21       0.05       0.30
      7.44       0.15       0.49
      7.46       0.27       0.32
      7.64       0.23      -0.52
      7.62      -0.03      -0.68
      8.04       0.04       0.44
      7.84       0.52      -0.46
      7.79       0.31      -0.30
      7.14      -0.29       0.17
      7.54      -0.16       0.10
      7.27      -0.11       0.50
      7.71      -0.22       0.47
      7.76      -0.16       0.50
      7.07       0.43      -0.09
      7.38       0.33      -0.24
      7.47      -0.10       0.18
      8.16       0.68       0.56
      8.45       0.60       0.86
      7.72       0.59       0.90
      7.69       0.53       0.61
      7.79       0.19       0.26
      7.85       0.72      -0.30
      7.58      -0.02      -0.14
      7.88       0.32      -0.29
      7.63       0.93       0.09
      7.36       0.00       0.29
      7.03       0.30       0.29
      7.45       0.53       0.26
      7.74       0.44       0.21
      7.23       0.14       0.11
      7.42      -0.50       0.53
      7.47      -0.32       0.58
      8.02      -0.08      -0.20
      7.50      -0.22      -0.54
      7.06      -0.94       0.03
      7.58      -1.43      -0.53
      7.77      -0.80       0.31
      7.86      -0.39       0.41
      8.82       0.27      -0.32
      8.09       0.07      -0.40
      6.69       0.10       0.59
      5.95      -0.07       0.34
      6.32      -0.24       0.39
      5.88       0.65       0.50
      6.16       0.43       0.78
      6.72       0.21       0.11
      6.93      -0.40      -0.17
      6.34      -0.18       0.29
      6.72       0.16       0.28
      6.95      -0.10       0.22
      7.20       0.45       0.62
      7.30       0.45      -0.12
      6.62       0.10       0.57
      6.22       0.04       0.57
      6.43       0.26       0.38
      6.82       0.28       1.06
      6.46      -0.60       0.54
      6.59      -0.46      -0.02
      6.85       0.01       0.46
      6.80      -0.05       0.20
      6.72       0.10       0.66
      7.61       0.13      -0.36
      7.38       0.18       0.16
      6.89       0.58       0.54
      7.12       0.43       0.16
      7.07       0.35       0.27
      7.50       0.92       0.06
      7.04       0.48       0.00
      7.49       0.09       0.25
      7.49       0.42       0.02
      7.56       0.46      -0.08
      7.55       0.76       0.05
      7.78       0.39       0.50
      7.53       0.16       0.29
      7.77      -0.02       0.61
      7.79       0.18       0.06
      7.90      -0.38       0.04
      8.18       0.05      -0.29
      7.25      -0.05       0.90
      6.57      -0.11       0.46
      7.29      -0.37      -0.17
      6.77      -0.64       0.50
      7.24      -1.26      -0.11
      7.10      -1.15      -0.01
      7.02      -0.37       1.06
      7.17      -0.05       0.14
      6.86      -0.02       0.37
      7.09       0.31       0.22
      7.33       0.32      -0.01
      7.29       0.75      -0.29
      6.97       0.33      -0.15
      6.89       0.18       0.29
      6.92       0.05       0.02
      7.30      -0.17      -0.12
      7.44       0.28      -0.13
      7.32       0.17      -0.13
      7.81      -0.21      -0.40
      8.15      -0.38      -0.60
      7.64       0.02      -0.40
      7.92       0.53      -0.47
      7.09       0.33       0.12
      6.94       0.36       0.04
      6.93       0.10       0.28
      6.59      -0.42       0.40
      6.83      -0.33       0.73
      6.96      -0.12       0.61
      7.08       0.15       0.19
      6.82       0.26       0.37
      6.88       0.33       0.63
      6.70       0.11       0.75
      6.14      -0.03       0.91
      6.34      -0.04       0.67
      6.83       0.24       0.31
      7.23       0.47       0.41
      7.58       0.24       0.00
      7.75       0.02      -0.26
      7.80      -0.03      -0.15
      7.72       0.16      -0.02
      7.69       0.88      -0.00
      7.72       0.52      -0.19
      7.92       0.28      -0.10
      7.98       0.01       0.13
      7.41       0.04      -0.20
      7.24       0.11      -0.29
      7.16       0.06       0.27
      7.33      -0.12       0.09
      7.83      -0.42       0.05
      7.53      -0.29      -0.32
      7.98      -0.90       0.38
      7.55      -0.73      -0.30
      7.14      -0.27       0.23
      6.83      -0.53       0.62
      6.45      -0.28       0.50
      6.84       0.10       0.40
      7.14       0.08       0.29
      7.20       0.07      -0.17
      7.31       0.51      -0.07
      7.72       0.77      -0.41
      7.60       0.45      -0.18
      7.05       0.19       0.03
      7.02      -0.43       0.30
      7.44      -0.50       0.13
      7.49      -0.06       0.69
      7.96      -0.46       0.23
      8.23      -0.11      -0.21
      8.29      -0.19      -0.57
      7.79       1.03      -0.11
      7.23       0.07      -0.28
      8.02      -0.30      -0.23
      8.20      -0.27       0.01
      8.29      -0.44      -0.55
      7.70      -0.47       0.15
      7.88       0.00      -0.06
      7.41       0.41       0.36
      7.15       0.69       0.06
      7.08       0.22      -0.21
      7.26       0.34       0.42
      6.89       0.11       0.20
      6.44       0.36       0.63
      7.14       0.41       0.43
      7.71       0.24      -0.16
      7.88       0.10      -0.51
      7.83       0.12      -0.65
      8.13      -0.13      -0.29
      7.82       0.23      -0.13
      7.69       0.49      -0.20
      7.90       0.50      -0.16
      7.83       0.62       0.12
      7.43       0.46       0.28
      7.31       0.12       0.13
      7.35       0.59      -0.08
      7.20       0.16      -0.11
      7.16      -0.20       0.07
      7.29      -0.29       0.10
      7.38      -0.12       0.16
      8.27      -0.45      -0.43
      8.19       0.12      -0.11
      8.34      -0.53      -0.19
      8.10      -0.85       0.21
      8.06      -0.65       0.02
      7.65       0.11      -0.10
      7.47       0.22       0.53
      7.33       0.59      -0.03
      7.69       0.24      -0.12
      7.91       0.36      -0.25
      7.53       0.64      -0.04
      7.37       0.21       0.54
      8.03      -0.60      -0.04
      8.29      -0.97       0.15
      7.95      -0.38       0.06
      7.92      -0.12      -0.15
      8.08      -0.04      -0.37
      7.95       0.22      -0.18
      8.10       0.24      -0.52
      8.81       0.14      -0.31
      8.75      -0.26      -0.39
      7.97       0.03      -0.19
      7.96      -0.30       0.00
      7.53       0.01       0.18
      7.52      -0.31       0.20
      7.06      -0.08       0.71
      7.86       0.73       0.31
      7.81       0.73      -0.26
      7.30      -0.05       0.01
      7.62      -0.37       0.32
      7.65      -0.03       0.19
      7.59       0.11       0.02
      7.77       0.29       0.08
      8.09       0.35      -0.01
      7.06       0.07       0.08
      7.20      -0.09      -0.23
      7.39      -0.04      -0.51
      7.52       0.23      -0.24
      7.93       0.33      -0.27
      7.36       1.07       0.33
      7.94       0.41      -0.18
      7.92       0.32      -0.22
      8.20      -0.08      -0.25
      7.96       0.09      -0.09
      7.87      -0.54      -0.48
      7.74      -0.45      -0.44
      7.68       0.16      -0.40
      8.30      -0.39      -0.36
      8.30       0.20      -0.05
      7.97      -0.02       0.22
      8.32      -0.74       0.62
      8.47      -0.98       0.07
      8.12      -0.91      -0.09
      7.53       0.36      -0.06
      7.57       0.39       0.69
      8.03       0.02      -0.12
      7.51       0.40      -0.06
      7.11       0.75       0.23
      8.21      -0.20       0.05
      8.02      -0.56      -0.02
      7.49      -0.66      -0.05
      7.58      -0.23       0.36
      7.72      -0.14       0.46
      8.07       0.20       0.02
      8.25       0.04      -0.23
      9.17      -0.12      -0.73
      8.64      -0.16      -0.22
      8.06      -0.20      -0.04
      8.61       0.12      -0.09
      7.70       0.21      -0.57
      7.75       0.40       0.18
      7.87      -0.03      -0.06
      7.08      -0.21       0.38
      7.41       0.28       0.45
      7.55       0.37       0.07
      7.56      -0.16       0.00
      6.96      -0.50       0.25
      6.77      -0.59       0.25
      7.35      -0.54       0.07
      7.92      -0.47      -0.28
      7.78       0.26      -0.22
      7.66       0.09      -0.18
      7.36       0.04       0.03
      7.52      -0.09      -0.46
      7.45       0.38       0.12
      7.55       0.34       0.01
      8.04       0.32       0.06
      7.62       0.13       0.08
      7.53      -0.56      -0.10
      7.72      -0.09      -0.20
      8.18       0.16       0.03
      7.79      -0.40       0.35
      7.57      -0.26       0.33
      7.51       0.54      -0.59
      8.14      -0.83      -0.11
      8.03      -0.83      -0.73
      8.21      -0.59      -0.85
      8.50      -0.76      -1.10
      9.09      -0.89      -0.98
      8.98      -0.62      -0.33
      8.69       0.10      -0.61
      9.12       0.12      -0.34
      8.34       0.46      -0.37
      7.95       0.38      -0.24
      8.00       0.65      -0.22
      8.03      -0.44       0.30
      7.92       0.08       0.13
      7.80      -0.01       0.58
      7.44       0.01       0.03
      7.78       0.17       0.01
      8.02      -0.09      -0.16
      8.18      -0.49       0.06
      8.29       0.35      -0.15
      7.79      -0.16       0.22
      8.20       0.15      -0.29
      7.75       0.82       0.01
      7.36       0.46       0.01
      7.73       0.20      -0.07
      7.32       0.09       0.64
      7.31       0.07       0.73
      7.57      -0.02      -0.00
      7.56      -0.41       0.16
      7.66      -0.33      -0.09
      7.75      -0.38       0.11
      7.88      -0.82      -0.20
      7.55      -0.79       0.35
      7.80      -0.57      -0.41
      8.15       0.22      -0.01
      7.27      -0.14       0.03
      7.64       0.26      -0.41
      7.36       0.13      -0.64
      7.04       0.18       0.09
      6.78      -0.46       0.15
      7.42      -0.31      -0.17
      7.91       0.43      -0.53
      7.85       0.04      -0.33
      7.86      -0.13      -0.19
      7.74      -0.19      -0.11
      7.10      -0.13       0.48
      6.98       0.08       0.47
      7.50       0.39      -0.31
      7.41      -1.22      -0.02
      6.90      -1.06       0.30
      7.30      -0.71       0.35
      7.22      -0.62       0.64
      7.19      -0.98      -0.26
      7.70      -0.63      -0.32
      7.97       0.57       0.51
      8.07       0.54      -0.22
      8.00       0.26      -0.32
      8.24       0.47      -0.21
      8.09       0.10      -0.37
      8.46       0.22      -0.61
      4.57      -0.07       0.03
      4.25       0.16       0.32
      4.41       0.11       0.09
      4.66       0.28      -0.08
      4.67      -0.37       0.81
      4.75      -0.25       0.41
      4.98       0.02       0.33
      5.47      -0.21      -0.14
      5.80       0.68       0.50
      6.24       0.28       0.41
      5.93       0.35       0.26
      7.50       0.54       0.16
      7.98       0.64       0.25
      7.57       0.23       0.23
      7.65      -0.16       0.36
      7.61      -0.33       0.41
      7.48      -0.30       0.18
      7.15      -0.43       0.35
      7.49      -0.42      -0.29
      7.35      -0.26       0.40
      7.22       0.18       1.12
      7.34       0.34       0.10
      7.04       0.41       0.04
      7.08      -0.03      -0.17
      7.40       0.53       0.14
      7.32       0.50       0.03
      6.50      -0.04       0.17
      6.39      -0.57       0.45
      6.46      -0.34      -0.22
      6.83       0.14      -0.11
      6.77       0.13       0.15
      7.63       0.09      -0.24
      6.89       0.29       0.22
      6.52      -0.01       0.86
      7.31      -0.02       0.27
      6.36      -0.53       0.29
      7.00      -0.20       0.77
      6.83      -0.65      -0.33
      6.94      -0.59       0.31
      6.67      -0.33       0.29
      6.85       0.16       1.11
      7.42       0.88       0.71
      6.92       0.21      -0.27
      7.32      -0.05      -0.45
      7.61       0.30      -0.39
      7.33       0.18       0.11
      7.37      -0.04       0.30
      5.65       0.56       0.20
      3.35      -0.05       0.42
      3.50       0.23       0.29
      3.25      -0.48       0.66
      2.73      -0.24       0.69
      3.18      -0.11       0.82
      3.01       0.10       1.01
      3.01       0.74       0.71
      3.31       0.68       0.55
      3.62       0.65       0.75
      3.99       0.53       0.50
      7.50       0.16       0.31
      7.62      -0.07       0.34
      7.76       0.04       0.43
      7.23      -0.03       0.38
      8.03      -0.27      -0.04
      7.66      -0.38       0.30
      7.80      -0.27       0.06
      7.58      -0.24      -0.46
      7.43       0.14      -0.42
      7.69       0.55       0.23
      7.07       0.30       0.55
      7.11       0.14       0.23
      6.84       0.06      -0.16
      7.20       0.20      -0.04
      7.44       0.93       0.21
      7.19       0.02      -0.38
      7.04       0.00       0.09
      6.85      -0.30       0.55
      6.61      -0.35      -0.23
      7.07      -0.22      -0.09
      6.92      -0.48      -0.07
      6.66       0.54       0.19
      6.65       0.45       0.47
      7.62      -0.38       0.05
      7.10      -0.42       0.08
      6.77      -0.15       0.40
      6.80      -0.14       0.47
      7.23      -0.79       0.30
      6.91      -0.19       0.14
      7.07      -0.23       0.52
      6.78      -0.14       0.25
      7.01       0.33       0.01
      6.93       0.06       0.43
      6.73       0.24       0.48
      6.97       0.01       0.23
      6.79       0.09       0.23
      3.99      -0.21       0.56
      3.69      -0.16       0.98
      3.83      -0.40       0.55
      3.78      -0.26       0.02
      4.03      -0.32       0.48
      4.02      -0.33       0.76
      3.55      -0.18       0.71
      3.93       0.05       0.70
      4.07       0.23       0.42
      4.00       0.10       0.49
      4.28       0.04       0.45
      7.82       0.25       0.24
      7.48       0.24       0.46
      7.56       0.22       0.75
      7.61      -0.48       0.38
      7.69      -0.11       0.32
      8.27      -0.21       0.29
      8.18      -0.24      -0.03
      7.45       0.28      -0.46
      6.79       0.10       0.42
      6.94       0.36       0.13
      6.88      -0.33       0.54
      7.71      -0.33      -0.16
      7.40      -0.06       0.38
      7.88       0.07      -0.16
      7.39       0.38       0.01
      7.20       0.17      -0.29
      7.22       0.63       0.42
      7.00       0.12      -0.06
      6.89      -1.35       0.29
      7.97      -0.58      -0.55
      8.25       0.10      -1.00
      6.88       0.34       0.56
      7.30       0.08      -0.14
      7.59      -0.02       0.02
      6.66      -0.54       0.29
      6.75      -0.51      -0.05
      6.69      -0.49      -0.16
      7.28      -0.89      -0.20
      7.10      -0.63       0.01
      7.17      -0.39       0.07
      7.08      -0.44       0.36
      6.73      -0.13       0.33
      6.66       0.38       0.42
      6.45       0.25       0.44
      6.56      -0.11       0.43
      6.64      -0.36       0.69
      4.19      -0.08       0.63
      3.45      -0.76       0.08
      3.67      -0.84      -0.05
      3.52      -0.45       0.10
      3.64      -0.39      -0.02
      3.80      -0.46       0.30
      3.75       0.01       0.51
      3.83       0.10       0.26
      4.02      -0.01       0.73
      4.18       0.16       0.36
      4.69       0.07       0.12
      8.08       0.23      -0.42
      7.68       0.53      -0.21
      7.76       0.16      -0.33
      7.02       0.53       0.42
      6.78      -0.29       0.97
      7.31      -0.17       0.41
      7.15      -0.29      -0.14
      6.84       0.71      -0.06
      7.11       1.04      -0.10
      7.06       0.26       0.15
      7.62      -0.25      -0.06
      7.20      -0.28      -0.45
      6.93      -0.43       0.59
      7.98       0.35       0.32
      7.15       0.24       0.51
      7.48       0.51       0.17
      7.54       0.53      -0.24
      8.02       0.19      -0.66
      7.12      -0.65      -0.25
      6.56      -0.96      -0.24
      5.73      -0.81       0.93
      6.80       0.17       0.33
      7.02       0.10       0.33
      7.06       0.18      -0.12
      7.41       0.09       0.10
      6.94      -0.40       0.35
      6.84      -0.67       0.05
      6.37      -0.46       0.63
      6.06      -0.68       0.26
      5.89      -0.46       0.30
      6.17      -0.52       0.37
      6.49      -0.38       0.34
      6.57      -0.12       0.34
      7.02       0.08      -0.03
      6.70      -0.62       0.27
      6.93       0.01      -0.04
      4.05      -0.08      -0.21
      2.60      -0.43       0.18
      3.37      -0.82       0.18
      4.22      -0.05       0.44
      4.53      -0.20       0.21
      4.52      -0.21       0.34
      4.87      -0.29       0.40
      4.92      -0.37       0.70
      5.55       0.03       0.30
      5.47       0.02       0.13
      5.22       0.32       0.03
      7.73       0.10      -0.87
      7.61      -0.29      -0.14
      7.98      -0.32      -0.44
      8.59       0.49      -0.20
      8.01      -0.04       0.04
      7.77       0.18       0.26
      7.54       0.26       0.07
      7.88       0.05       0.18
      7.95       0.03      -0.10
      7.97       0.24      -0.76
      7.81       0.06       0.14
      7.28      -0.12      -0.29
      6.65       0.02       0.56
      6.71       0.14       0.37
      6.90       0.18       0.59
      7.31       0.35       0.26
      7.72       0.05      -0.02
      7.80      -0.21      -0.29
      8.49      -0.59      -1.04
      7.68       0.08      -0.63
      7.13       0.16      -0.12
      7.22      -0.61       0.55
      7.11       0.26       0.49
      7.15      -0.24      -0.26
      7.25       0.32       0.05
      7.13       0.27      -0.05
      6.98       0.22      -0.48
      7.17      -0.67       0.03
      7.27      -0.27       0.29
      7.47      -0.38       0.65
      7.27      -0.83       0.16
      7.70      -0.97       0.71
      7.29      -1.67       0.49
      7.69      -0.33       0.53
      6.71      -0.59       0.59
      6.94       0.30      -0.54
      7.00       0.53      -0.81
      7.34      -0.03       0.14
      7.26      -0.57      -0.08
      7.22      -0.23      -0.12
      7.13      -0.09       0.10
      7.12      -0.18       0.51
      7.27      -0.60       0.08
      7.10      -1.00       0.28
      7.13      -0.13      -0.42
      6.82      -0.00      -0.46
      6.76      -0.49      -0.29
      8.05      -0.33      -0.78
      7.50      -0.40      -0.12
      7.12      -0.25      -0.05
      6.75       0.00      -0.13
      6.85       0.06       0.10
      7.05      -0.30      -0.18
      8.02       0.05      -0.05
      8.13      -0.07      -0.32
      7.75      -0.02      -0.38
      7.79       0.35      -0.49
      7.64      -0.65      -0.01
      7.27       0.00      -0.89
      6.72       0.80       0.33
      7.06      -0.71       0.13
      7.43      -0.20       0.13
      7.33      -0.73       0.69
      7.91      -0.40       0.36
      7.76      -0.46       0.27
      7.88      -0.45      -0.26
      8.02       0.72      -0.67
      7.78       0.58      -0.56
      6.83       0.53       0.18
      6.90       0.18      -0.26
      6.90       0.03       0.64
      7.79       0.02      -0.22
      7.30       0.21      -0.16
      7.40       0.21      -0.47
      7.80      -0.02      -0.71
      8.06      -0.91       0.26
      8.34      -0.34      -0.05
      8.69      -0.94      -0.23
      8.01      -0.58       0.17
      7.48      -0.56       0.44
      7.02      -0.13       0.55
      7.32      -0.25      -0.75
      7.39       0.56      -0.93
      7.06       0.74      -1.13
      7.45      -0.37      -1.34
      7.65       0.25      -1.02
      7.20      -0.43       0.00
      7.45      -0.50       0.41
      7.39      -0.70       0.19
      7.84      -0.97       0.21
      7.66      -0.52       0.14
      7.66      -0.64       0.16
      7.08      -0.40      -0.19
      7.56      -0.46      -0.24
      6.91      -0.11      -0.17
      6.66      -0.66      -0.35
      6.84       0.35       0.35
      6.73      -0.18       0.44
      6.57       0.08       0.41
      6.84      -0.53       0.21
      6.90      -0.16      -0.27
      7.03      -0.14       0.26
      6.29       0.42       0.62
      7.06      -0.20      -0.07
      7.52      -0.60       0.09
      7.55       0.14       0.65
      8.75      -0.07       0.43
      7.52      -0.15      -0.13
      7.22      -0.12       0.39
      7.30      -0.37      -0.36
      7.52      -1.54       0.55
      7.34      -0.71       0.43
      6.76      -0.11       0.44
      6.62      -0.24       0.26
      7.45       0.48       0.13
      7.18       0.78       0.39
      7.60       0.26      -0.09
      7.55       0.81      -0.14
      8.18       0.54      -0.46
      7.68       0.05      -0.52
      7.50      -0.43      -0.44
      7.83      -0.04      -0.09
      7.94       0.18      -0.35
      8.37       0.05      -0.47
      8.92      -0.35       0.02
      8.93      -0.39      -0.25
      8.18       0.15      -0.39
      7.97      -0.07       0.27
      8.16      -0.40       0.22
      7.27       0.68      -0.22
      7.74      -0.37      -0.26
      8.00      -0.37      -0.34
      7.90      -0.05      -0.52
      8.17       0.19      -0.62
      8.51      -0.01      -0.48
      8.91      -0.71      -1.02
      8.06      -0.28      -0.75
      8.17      -0.60       0.27
      7.83      -0.05       0.15
      8.20      -0.99      -0.04
      7.76      -0.32      -0.26
      7.52      -0.43      -0.15
      6.75       0.08       0.24
      6.80       0.44      -0.12
      6.79      -0.02       0.33
      6.63      -0.14       0.63
      7.52      -0.62       0.40
      7.44      -0.68       0.11
      7.37      -0.01      -0.18
      7.41       0.15      -0.10
      7.63      -0.59       0.08
      7.49      -0.88      -0.17
      7.52      -1.03      -0.19
      8.22      -0.86      -0.07
      8.70      -0.18      -0.17
      7.94       0.16      -0.18
      7.47      -0.49      -0.24
      7.43      -0.60       0.22
      6.79       0.22       0.82
      6.93      -0.54       0.43
      6.91      -0.66       0.49
      6.69      -0.36       0.45
      7.81       0.10      -0.19
      7.37       0.03       0.10
      8.15       0.85       0.27
      7.83       0.63       0.07
      8.01       0.04      -0.72
      7.81      -0.58      -0.53
      8.34      -0.23      -0.37
      8.27      -0.52      -0.02
      8.29      -0.20       0.03
      8.65      -0.66       0.34
      7.97       0.11       0.09
      7.98      -0.23       0.03
      8.46      -0.33       0.17
      8.10      -0.29       0.53
      7.60      -0.09       0.16
      7.90      -0.80      -0.45
      6.79      -0.19       0.54
      7.25       0.05      -0.15
      7.48      -0.09      -0.14
      7.43      -0.43      -0.09
      7.73      -0.59      -0.27
      8.71       0.43      -0.84
      9.09       0.13       0.14
      8.42      -0.41       0.18
      7.65      -0.19       0.10
      7.37      -0.14      -0.48
      7.22       0.25       0.08
      7.27       0.05      -0.16
      7.19       0.31       0.31
      6.84      -0.33       0.66
      7.33      -0.90       0.14
      7.30      -1.20       0.34
      7.38      -0.74       0.14
      7.76      -0.11       0.41
      7.90      -0.19      -0.17
      7.66      -0.33       0.44
      7.91      -0.79      -0.08
      7.72      -0.76      -0.01
      7.80      -0.66       0.39
      8.02      -0.33      -0.47
      8.10      -0.06      -1.09
      8.21       0.12      -0.96
      8.86      -0.00      -0.31
      8.24       0.28       0.42
      7.60      -0.23       0.58
      7.26      -0.49       0.27
      7.39      -0.36      -0.18
      7.47      -0.02       0.29
      7.31       0.35       0.24
      7.38       1.07       0.29
      8.12       0.24       0.26
      8.50       0.15      -0.37
      8.54      -0.04      -0.95
      8.57       0.08      -0.72
      8.46      -0.22      -0.52
      8.66      -0.51      -0.44
      8.55      -0.37      -0.05