# vtk DataFile Version 3.0
Low resolution, disturbed wind of YZ Slice at time = 0 seconds.
ASCII
DATASET STRUCTURED_POINTS
DIMENSIONS     1    26    12
ORIGIN    1630.00     635.00      15.00
SPACING      30.00      30.00      30.00
POINT_DATA             312
VECTORS DisYZ float
      5.08       0.61       0.88
      3.70       0.16       0.46
      5.34       0.75      -0.13
      6.11       0.69      -0.21
      5.39       0.43       0.24
      4.41       0.31       0.19
      6.00       0.53      -0.29
      5.88       0.59       0.09
      6.41       0.43       0.30
      4.69      -0.10       0.06
      5.66      -0.31       0.27
      6.66      -0.50       0.20
      6.09       0.34      -0.16
      5.89       1.00       0.05
      4.01       0.40      -0.18
      4.70      -0.33      -0.22
      4.47       0.07       0.55
      6.22      -0.08      -0.22
      6.69       0.10      -0.12
      6.22       0.25       0.32
      6.71       0.15       0.44
      6.06       1.01       0.28
      4.74       0.06       0.25
      6.73       0.36      -0.47
      6.86       0.89      -0.77
      6.59       0.16       0.35
      6.23       0.18       0.08
      6.99       0.91       0.53
      6.47       0.44       0.23
      6.71       0.65       0.20
      6.03       0.20       0.41
      6.61       0.29       0.14
      6.57      -0.22      -0.43
      6.58      -0.58      -0.11
      5.73      -0.40       0.25
      6.51      -0.45      -0.14
      5.74       0.52       0.22
      6.93       0.69      -0.89
      6.48       0.60      -0.33
      6.86       0.76       0.17
      6.49       0.11      -0.07
      6.61      -0.39       0.04
      7.09       0.46      -0.33
      6.87       0.76      -0.09
      6.80       0.13       0.27
      6.74      -0.45       0.42
      7.12      -0.13       0.36
      7.18       0.46       0.11
      7.56       0.59      -0.14
      7.80       0.06      -0.04
      7.56       0.07      -0.61
      8.23      -0.19      -0.55
      6.53       0.74       0.36
      6.54      -0.30      -0.20
      6.66      -0.62       0.46
      6.86      -0.68       0.82
      6.80       0.05       0.33
      7.07       0.31      -0.14
      6.88       0.18      -0.14
      7.26      -0.22      -0.12
      7.46      -0.58       0.03
      6.86       0.47       0.27
      7.54       0.47      -0.39
      7.28       0.73      -0.13
      7.04       0.27       0.27
      5.56       0.01       1.12
      5.82      -0.05      -0.17
      7.50       0.00      -0.01
      8.44       0.42      -0.98
      7.17       0.14      -0.05
      7.34      -0.06       0.35
      6.76       0.23       0.63
      7.92       0.06       0.19
      7.36       0.43       0.05
      8.03       0.62       0.21
      8.05       0.16       0.14
      8.79       0.20      -0.47
      8.81       0.51      -0.02
      7.43      -0.02       1.15
      7.89       0.00      -0.93
      7.77      -0.09       0.02
      8.19      -0.11       0.20
      8.30      -0.11       0.07
      7.59      -0.11       0.28
      7.91      -0.43      -0.15
      7.93      -0.15      -0.06
      8.11      -0.38      -0.13
      8.09      -0.26      -0.29
      7.66      -0.18      -0.27
      6.87      -0.75      -0.31
      7.27      -0.79       0.43
      7.82      -0.44       0.36
      7.76      -0.28      -0.34
      7.44       0.09      -0.48
      8.67       0.23      -0.43
      8.26       0.42      -0.06
      7.16       0.28       0.49
      7.45       0.13       0.49
      7.66       0.46       0.15
      8.65       0.21       0.01
      8.24       0.04       0.08
      8.84      -0.10       0.14
      9.07       0.13       0.11
      8.97      -0.06      -0.42
      8.70       0.42       0.06
      8.16       0.24       0.04
      7.91      -0.46      -0.13
      8.72      -0.39      -0.12
      7.71      -0.02       0.10
      7.90      -0.20       0.37
      8.11      -0.52       0.19
      8.08      -0.21      -0.19
      8.40      -0.66       0.09
      8.75      -0.43      -0.32
      8.55      -0.46      -0.41
      8.52      -0.02       0.08
      8.58      -0.74       0.09
      8.45      -0.74      -0.01
      9.47      -0.77       0.02
      9.56      -0.43      -0.69
      9.13      -0.37      -0.26
      8.75      -0.23      -0.17
      7.64      -0.26       0.83
      8.00       0.16       0.19
      8.46       0.50      -0.10
      8.67       0.39      -0.01
      8.80       0.12       0.12
      8.85       0.17       0.06
      8.95       0.18      -0.08
      8.91       0.25       0.07
      8.44       0.37       0.17
      7.81       0.35       0.53
      8.30       0.30      -0.08
      8.31       0.23       0.07
      8.05      -0.52       0.58
      7.94      -0.43       0.45
      8.54      -0.19       0.36
      8.55      -0.59       0.40
      8.64      -0.63       0.19
      9.21      -0.48      -0.00
      9.18      -0.64      -0.50
      9.08      -0.24      -0.05
      8.11      -0.61       0.60
      8.60      -0.75      -0.14
      9.33      -0.56       0.21
      9.55      -0.67      -0.67
      9.21      -1.42      -0.02
      9.83      -1.35      -0.74
      8.31      -0.77       0.77
      9.34      -0.18      -0.05
      8.32      -0.01       0.31
      9.33       0.14      -0.13
      9.23      -0.13      -0.27
      9.23      -0.08      -0.24
      8.96      -0.12       0.08
      8.95       0.09       0.49
      8.40       0.07       0.37
      8.31       0.36       0.32
      8.42       0.34      -0.01
      8.33       0.23       0.25
      8.10      -0.22       0.60
      8.56       0.16       0.48
      8.46      -0.24       0.48
      8.39      -0.44       0.74
      8.95      -0.71       0.34
      8.73      -0.69       0.22
      9.58      -0.87      -0.64
      8.75      -1.13      -0.11
      8.55      -0.84       0.23
      9.17      -0.78       0.03
      9.85      -0.86      -0.41
      9.71      -0.99      -0.15
      9.47      -0.95      -0.39
      9.87      -0.87      -0.39
      8.78      -0.83       0.40
      8.62      -0.17       0.25
      9.37      -0.34       0.20
      9.20      -0.23       0.28
      9.23      -0.57      -0.20
      9.48      -0.59      -0.19
      9.61      -0.73      -0.17
      9.19      -0.27       0.38
      7.78      -0.26       0.14
      8.33      -0.38       0.21
      8.75       0.01       0.17
      8.35       0.03       0.57
      8.91      -0.05       0.29
      8.68      -0.17       0.44
      8.69      -0.31       0.11
      8.84      -0.35       0.46
      8.65      -0.43       0.26
      9.15       0.07       0.20
      9.57      -0.24      -0.14
      8.82      -0.54      -0.13
      9.59      -1.16      -0.07
      9.69      -1.11      -0.21
      9.53      -1.00      -0.52
      9.68      -0.32      -0.03
     10.00      -0.37       0.01
      9.61      -0.67       0.02
      8.87      -0.78       0.14
      8.50      -0.63       0.32
      8.97      -0.54       0.42
      9.45      -0.41       0.17
      9.33      -0.59       0.13
      9.85      -0.33      -0.40
      9.26      -0.63      -0.62
      9.58      -0.56       0.48
      9.04       0.09      -0.48
      8.29       0.46       0.08
      8.53       0.45       0.10
      9.31       0.11       0.04
      9.04       0.04       0.33
      9.07      -0.40       0.39
      9.12      -0.04       0.08
      9.20       0.17       0.07
      9.36       0.39       0.61
      9.45      -0.02       0.27
      9.57      -0.28       0.29
      9.18      -0.95      -0.11
      9.07      -0.66       0.32
     10.04      -1.00      -0.40
      9.54      -0.91      -0.23
      9.31      -0.94      -0.63
     10.10      -0.77       0.10
      9.07      -0.81       0.41
      8.99      -0.85       0.43
      9.52      -0.50      -0.53
      9.52      -0.28       0.14
      9.40      -0.51       0.52
      9.67      -0.49      -0.09
      9.23      -1.14      -0.11
      9.14      -1.09       0.32
      9.56      -0.79       0.08
      9.11      -0.34       0.12
      8.82      -0.18       0.10
      9.78      -0.98       0.37
      9.18      -0.61       0.34
      9.48      -0.70      -0.06
      9.52      -0.24      -0.17
      9.48      -0.26       0.35
      8.78      -0.27       0.26
      9.94      -0.32       0.60
      9.79      -0.29       0.53
      9.41      -0.29       0.41
      9.51      -0.50       0.12
      9.63      -0.98      -0.11
     10.04      -0.67      -0.03
      9.96      -0.71      -0.12
      9.82      -0.74      -0.01
      8.89      -1.34       0.21
      9.28      -1.22       0.39
      9.37      -0.67       0.17
      9.53      -0.69      -0.18
      9.24      -0.76      -0.05
      9.81      -0.93       0.04
      9.56      -1.29       0.36
      9.32      -1.49       0.24
     10.00      -1.13      -0.25
      9.19      -0.63       0.51
      9.34      -0.39       0.20
      9.25      -0.71       0.42
      9.17      -0.63      -0.05
      9.06      -0.85       0.33
      9.88      -0.68       0.26
      8.86      -0.69      -0.14
      9.12      -0.71       0.04
      8.79      -0.76       0.55
      9.52      -0.61       0.91
      9.32      -0.56       0.22
      9.79      -0.57       0.31
      9.92      -0.69       0.17
      9.92      -0.29       0.20
      9.99      -0.53      -0.23
     10.05      -0.39      -0.10
      9.94      -0.49       0.43
      9.54      -0.67       0.62
      9.18      -0.90       0.06
      8.90      -0.77      -0.08
      9.69      -0.77      -0.11
      9.94      -0.67       0.16
      9.48      -0.76       0.17
      9.61      -0.78       0.25
      9.76      -0.50       0.16
     10.18      -0.73      -0.29
     10.57      -0.73      -0.32
      9.56      -0.66       0.42
      9.40      -0.64       0.39
      9.31      -0.68       0.23
      9.12      -0.49       0.20
      9.63      -0.77      -0.02
      9.47      -0.36       0.12
      9.60      -0.95       0.24
      9.37      -0.81       0.63
      9.44      -0.53       0.99
      9.41      -0.55      -0.04
      9.78      -0.79       0.21
     10.39      -1.11      -0.07
     10.38      -0.85      -0.26
     10.57      -0.61      -0.13
     10.39      -0.39      -0.26
     10.09      -0.86       0.07
      9.93      -0.60       0.24
      9.89      -0.25       0.23
      9.93      -0.46      -0.06
      9.56      -0.49      -0.03
     10.16      -0.77       0.48
      9.43      -0.62       0.19
      9.52      -0.37       0.23
     10.04      -0.57       0.25
     10.23      -0.50      -0.28
     10.04      -0.53      -0.28
