# vtk DataFile Version 3.0
Low resolution, disturbed wind of YZ Slice at time = 42 seconds.
ASCII
DATASET STRUCTURED_POINTS
DIMENSIONS     1    26    12
ORIGIN     748.00     635.00      15.00
SPACING      30.00      30.00      30.00
POINT_DATA             312
VECTORS DisYZ float
      4.98       1.13       0.60
      5.78       0.75       0.07
      6.60       0.65       0.11
      5.27       0.24      -0.34
      5.19       0.80       0.06
      4.58       0.24       0.29
      6.44      -0.20      -0.40
      6.20      -1.38       0.28
      7.38      -0.30      -0.53
      5.46      -0.35      -0.11
      4.67       0.10       0.35
      4.49      -0.27      -0.10
      4.81      -0.08       0.27
      3.76      -0.29       0.36
      4.91       0.23      -0.28
      4.64      -0.23      -0.08
      5.63       0.08       0.19
      4.20      -0.46       0.33
      5.25      -0.37      -0.60
      5.25      -1.10       0.24
      6.41      -0.13      -0.41
      4.42      -0.13       0.29
      6.49       0.22      -0.17
      5.14       0.39       0.04
      6.17       1.49      -0.26
      5.35       1.01      -0.21
      7.85       0.74       0.54
      7.84       0.12       0.16
      6.94       0.01      -0.12
      6.14      -0.12      -0.16
      6.31       0.09      -0.69
      5.39       0.49       0.46
      6.23       0.46      -0.54
      8.13      -0.45       0.42
      7.64       0.15      -0.54
      7.22       0.44       0.02
      7.15       1.03       0.81
      6.42       0.30       0.90
      5.92      -0.35      -0.02
      6.09      -0.19       0.41
      6.37       0.17      -0.19
      5.09       0.02       0.21
      6.95      -0.28       0.37
      7.10      -0.46       0.13
      7.03      -0.18      -0.44
      7.46      -0.20      -0.77
      6.43       0.54      -0.13
      8.25       0.81      -0.85
      7.82       0.31      -0.90
      7.60       0.74      -0.39
      8.40       0.23       0.32
      7.59       1.01       0.47
      8.37      -0.11       0.04
      7.49      -0.37      -0.17
      8.23      -0.16      -0.57
      6.45      -0.47      -0.43
      8.70      -0.10      -0.48
      6.92       0.08       0.35
      6.40       0.06       0.40
      7.68      -0.05      -0.14
      8.02      -1.21      -0.45
      8.71      -0.77      -0.66
      6.96      -0.55      -0.07
      6.17       0.08       1.15
      7.39       0.31       0.23
      7.04      -0.42      -0.06
      5.84      -0.62       0.13
      7.71      -0.89       0.60
      8.05      -0.52      -0.01
      8.12       0.54      -0.22
      8.07      -0.05      -0.04
      8.55      -0.27      -0.58
      9.05      -1.00      -1.21
      8.73      -0.54      -0.55
      9.04      -0.25      -0.69
      9.12      -0.17      -0.34
      9.05      -0.31      -0.61
      8.75       0.41       0.15
      8.36      -0.34      -0.10
      7.69      -0.39       0.74
      7.84      -0.50      -0.14
      8.00      -1.11      -0.07
      8.42      -0.26      -0.52
      7.21      -0.31       0.27
      7.13      -0.26       0.51
      7.84      -0.50       0.54
      8.77      -0.80       0.28
      9.39      -0.89      -0.52
      8.01      -0.78      -0.17
      7.29      -0.21       0.85
      7.12       0.06       0.67
      7.03      -0.44       0.32
      6.81      -0.25       0.34
      6.15       0.02       0.70
      8.57      -0.21       0.09
      8.53      -0.87      -0.90
      8.52      -0.64       0.30
      8.99      -0.65      -0.17
      9.48      -0.01      -0.90
      9.33      -0.01      -1.02
      9.53      -0.08      -0.70
      9.77      -0.30      -0.68
      8.83      -0.15      -0.75
      8.97       0.02      -0.91
      8.08      -0.40      -0.14
      8.17      -0.18       0.77
      7.73      -0.71       0.16
      8.28      -0.83       0.35
      8.64      -0.70      -0.44
      8.07      -0.83       0.13
      7.98      -0.60       0.29
      8.15      -0.40       0.60
      8.61      -0.54       0.14
      9.37      -0.42      -0.79
      8.57      -1.20      -0.61
      7.51      -1.68       0.36
      7.22      -1.35       0.62
      7.58      -1.17       0.39
      7.78      -0.49       0.40
      8.69      -0.82       0.30
      8.97      -0.29      -0.18
      9.07      -0.67      -0.31
      8.95      -0.20      -0.38
      9.31      -0.34      -0.42
      9.89      -0.14      -0.51
      9.13       0.13      -0.32
      9.74       0.34      -0.75
      9.75       0.04      -0.97
      9.09      -0.28      -0.70
      9.03      -0.16      -1.04
      8.09      -0.24      -0.09
      7.58      -0.86       0.77
      7.75      -0.70       0.03
      8.14      -0.65       0.03
      8.41      -0.88      -0.20
      8.21      -1.08       0.17
      8.25      -1.16       0.01
      8.32      -0.76       0.23
      8.26      -0.33      -0.25
      9.24      -0.97      -0.27
      9.02      -1.16       0.10
      8.51      -1.41       0.27
      7.96      -1.17       0.87
      8.45      -0.74       0.57
      9.08      -0.59      -0.03
      8.62      -0.22       0.09
      9.29      -0.38      -0.24
      9.13      -0.34       0.14
      9.34      -0.40      -0.09
      9.80      -0.14      -0.43
      9.78      -0.05      -0.78
      9.26       0.23      -0.62
      9.44       0.08      -0.44
      9.33      -0.44      -0.87
      9.27      -0.36      -0.78
      8.23       0.00      -0.85
      8.31      -0.31      -0.34
      7.92      -0.20       0.75
      7.62      -0.73       0.53
      8.36      -0.91       0.43
      8.02      -0.98      -0.12
      8.91      -0.88       0.06
      8.98      -0.82       0.17
      8.65      -0.59       0.05
      9.02      -0.60       0.26
      8.51      -0.73      -0.16
      9.30      -0.63      -0.04
      8.56      -1.36       0.02
      8.23      -1.09       0.71
      7.37      -0.93       1.01
      9.24      -0.42       0.27
      9.04      -0.15       0.50
      9.27      -0.58       0.19
      9.51      -0.40      -0.34
      9.72      -0.21      -0.27
      9.66      -0.05      -0.24
      9.75      -0.44      -0.70
      9.64      -0.56      -0.84
      9.73      -0.39      -0.35
      9.46      -0.40      -0.44
      9.47      -0.56      -0.81
      8.79      -0.46      -0.86
      8.29      -0.25       0.00
      8.19       0.19       0.74
      7.55      -0.10       0.45
      8.30      -0.71       0.38
      7.59      -0.15       0.02
      7.69      -0.23      -0.25
      8.29      -0.14      -0.31
      9.34      -0.59       0.41
      8.54      -0.54       0.15
      8.76      -0.40      -0.07
      9.00      -0.62       0.34
      8.70      -0.85       0.29
      8.64      -1.00       0.63
      8.08      -0.28       1.32
      9.04      -0.49      -0.09
      9.22      -0.35       0.29
      9.28      -0.28       0.00
      9.55      -0.08      -0.14
      9.78      -0.23      -0.15
      9.88      -0.12      -0.18
      9.41      -0.37      -0.30
      9.29      -0.28      -0.64
     10.40      -0.53      -0.49
      9.58      -0.49      -0.42
      8.90      -0.39      -0.36
     10.36      -0.71      -0.81
      8.23      -0.43       0.55
      7.67      -0.15       0.77
      7.70       0.17       0.36
      7.55       0.13       0.43
      8.04       0.02       0.17
      8.86      -0.17      -0.36
      8.13       0.19       0.06
      8.43       0.05       0.04
      8.79      -0.04       0.29
      9.12      -0.83       0.13
      8.79      -0.88       0.36
      8.98      -0.92       0.18
      8.42      -0.19       0.51
      8.97      -0.02       0.60
      8.78       0.42       0.40
      9.28      -0.03       0.10
      9.38      -0.26      -0.12
      9.31      -0.18      -0.42
      9.24      -0.24      -0.17
      9.51      -0.10      -0.23
      9.81       0.02      -0.37
      9.77      -0.11      -0.50
      9.77      -0.03      -0.37
      9.53      -0.45      -0.34
      9.41      -0.65      -0.58
      9.32      -1.08      -0.38
      8.44      -1.09       0.34
      9.88      -0.59      -0.34
      9.10       0.32      -0.18
      8.32       0.29       0.35
      9.21       0.34      -0.26
     10.05       0.12      -0.81
      9.43       0.07      -0.16
      9.33       0.22       0.24
      9.02       0.14       0.39
      9.20      -0.26       0.37
      9.14      -0.31       0.11
      9.41      -0.16      -0.09
      9.55      -0.17       0.10
      9.93       0.15       0.18
      9.22       0.25       0.63
      9.52       0.01       0.17
      8.88      -0.15      -0.06
      9.53      -0.21      -0.25
      9.42       0.05      -0.23
      9.78      -0.09      -0.41
     10.07      -0.24      -0.79
     10.09      -0.95      -0.25
      9.92      -0.64      -0.44
      9.62      -0.80      -0.05
      9.93      -0.82      -0.32
     10.47      -0.72      -0.74
      8.59      -0.74       0.54
      9.81      -0.48      -0.19
     10.36      -0.53      -0.41
      9.87      -0.82       0.22
     10.48      -0.39      -0.70
     10.45      -0.21      -0.52
     10.43      -0.47       0.00
      9.17      -0.18       0.12
      9.14       0.03       0.58
      9.30       0.10       0.17
      9.27      -0.11       0.41
      9.09      -0.08       0.27
      9.86      -0.01       0.09
      9.99       0.02       0.19
      9.16       0.39       0.37
      9.46       0.52       0.22
      9.22       0.12       0.21
      9.72      -0.29       0.10
     10.10      -0.29      -0.37
      9.94      -0.41      -0.40
      9.98      -0.20      -0.27
      9.95      -0.71      -0.10
     10.20      -1.24      -0.45
     10.66      -1.37      -0.61
     10.27      -0.81      -0.50
      9.96      -0.97      -0.46
      9.93      -1.08       0.24
     10.00      -0.56      -0.20
     10.02      -0.52      -0.33
     10.51      -0.60      -0.41
     10.36      -0.29      -0.53
     10.03      -0.40      -0.26
     10.01      -0.66       0.14
      9.75      -0.60       0.24
      9.65      -0.14       0.35
      9.60      -0.33       0.28
      9.35      -0.29       0.31
      9.56      -0.33       0.21
      9.55      -0.34       0.34
      9.44      -0.25       0.16
      9.98       0.16       0.13
      9.65       0.36      -0.08
      9.36       0.03       0.43
     10.07      -0.10       0.34
      9.58      -0.18      -0.58
      9.47      -0.27      -0.83
      9.85      -0.78       0.43
     10.11      -0.90      -0.02
     10.32      -1.07      -0.20
      9.97      -1.10      -0.28
     10.44      -0.97      -0.32
     10.75      -1.29      -0.56
