# vtk DataFile Version 3.0
Low resolution, disturbed wind of XZ Slice at time = 3 seconds.
ASCII
DATASET STRUCTURED_POINTS
DIMENSIONS    47     1    12
ORIGIN     635.00    1000.00      15.00
SPACING      30.00      30.00      30.00
POINT_DATA             564
VECTORS DisXZ float
      4.61      -0.22      -0.03
      5.05      -0.14       0.04
      4.99       0.47      -0.02
      5.25       0.73       0.04
      5.31       0.04      -0.22
      4.76       0.51       0.10
      5.44       0.33      -0.14
      5.36       0.41      -0.04
      5.87       0.79      -0.25
      6.69       0.51      -0.50
      6.41      -0.03       0.06
      6.85       0.36      -0.55
      4.63      -0.04      -0.10
      4.01       0.06       1.02
      3.99       0.49       0.26
      3.36       0.01       0.71
      4.50       0.17       0.52
      5.41      -0.33      -0.66
      5.10       0.44       0.41
      3.96      -0.01       0.35
      3.66       0.13       0.34
      3.78       0.00       0.12
      3.79       0.49       0.08
      4.38      -0.24      -0.09
      4.80       0.05       0.04
      4.86       0.42       0.07
      4.67       0.31      -0.46
      4.35       0.60       0.49
      4.75      -0.48      -0.30
      4.62      -0.04      -0.04
      4.81       0.71      -0.24
      5.55       0.36      -0.44
      5.72       0.68      -0.15
      6.18       0.76      -0.62
      6.03       0.42       0.15
      5.42      -0.19      -0.18
      5.85       0.22      -0.03
      5.51      -0.10       0.26
      5.11       0.30       0.26
      6.15       0.14      -0.81
      5.21       0.74       0.20
      5.71      -0.14       0.22
      4.47       0.18      -0.19
      4.24       0.56       0.03
      4.96       0.89       0.26
      4.55       0.17       0.27
      5.02       0.31      -0.46
      6.61       0.13      -0.21
      6.45      -0.01      -0.21
      6.26       0.15      -0.30
      6.51       0.15      -0.04
      6.14      -0.48      -0.07
      5.86      -0.36       0.27
      6.35       0.26      -0.05
      6.58       0.07       0.02
      6.68       0.18       0.20
      6.90       0.51       0.04
      7.47       0.25       0.12
      7.48      -0.45      -0.38
      2.34      -0.58       0.43
      2.69      -0.85       1.23
      7.90      -0.22      -0.17
      6.69      -0.42       0.45
      7.22      -0.51      -0.11
      7.15      -0.34      -0.52
      6.91       0.05       0.12
      7.24      -0.28       0.30
      6.52       0.18      -0.32
      5.39       0.19       0.06
      5.82       0.32       0.36
      6.20       0.76       0.43
      5.99       0.54      -0.23
      6.24       0.79       0.04
      6.31      -0.09       0.18
      5.70       0.05       0.49
      6.39       0.18       0.04
      6.62       0.62       0.20
      5.58       0.54       0.00
      5.97      -0.54      -0.02
      6.56      -0.45       0.07
      6.86       0.22      -0.23
      6.53       0.71      -0.38
      7.18       0.50      -0.20
      5.66       1.18       0.14
      5.66       0.07       0.01
      6.59       0.02      -0.18
      6.64       0.44      -0.48
      5.64       0.12      -0.02
      6.06       0.09       0.35
      5.76       0.04       0.42
      6.27       0.52       0.02
      6.01       0.74       0.36
      6.53       0.95       0.20
      6.93       0.92       0.47
      6.83       0.45       0.19
      6.46       0.30       0.11
      6.92      -0.29       0.12
      6.90      -0.38       0.37
      6.65      -0.18       0.14
      6.40      -0.26       0.16
      6.70       0.22       0.30
      7.00       0.24       0.38
      6.87       0.36       0.48
      7.02       0.38       0.24
      7.42       0.46       0.13
      7.34       0.09      -0.00
      4.07      -0.54       0.51
      4.97      -0.41       0.62
      7.94       0.41       0.16
      7.59      -0.20       0.33
      7.79      -0.75      -0.02
      7.65      -0.04      -0.24
      7.25      -0.63       0.08
      7.11      -0.52      -0.05
      7.23       0.21      -0.29
      6.34       0.19       0.26
      6.39       0.49       0.25
      7.20       0.07       0.06
      6.86      -0.11       0.14
      7.30      -0.56       0.37
      7.29       0.30      -0.08
      7.00       0.40       0.08
      6.60       0.35       0.09
      6.17      -0.02       0.51
      6.28      -0.04       0.73
      6.58      -0.38      -0.13
      7.25      -0.53      -0.64
      7.42      -0.78      -0.50
      6.87       0.55       0.52
      7.40       0.82      -0.38
      7.14       0.91       0.02
      7.13       0.68      -0.38
      7.55      -0.03      -0.26
      7.74      -0.20      -0.73
      7.84       0.05      -0.46
      6.41      -0.22       0.61
      6.73       0.01      -0.02
      6.67      -0.42      -0.16
      5.99       0.10      -0.09
      5.74       0.24       0.11
      6.32       0.36      -0.07
      6.16      -0.22       0.14
      6.39      -0.12       0.32
      7.12      -0.25       0.36
      7.69      -0.47       0.17
      7.93      -0.67       0.19
      7.66      -0.72       0.36
      7.41      -0.72       0.18
      7.01      -0.26       0.56
      7.12       0.28       0.53
      7.47       0.37       0.28
      7.68       0.53       0.40
      7.81       0.81      -0.00
      7.74       1.06       0.15
      4.64       1.12       0.39
      8.05       0.78      -0.02
      8.42       0.24       0.10
      8.43       0.17       0.47
      8.21       0.07      -0.10
      8.31      -0.14      -0.05
      8.36      -0.17      -0.11
      8.10       0.13       0.08
      8.02       0.47       0.43
      7.91       0.09       0.30
      8.09      -0.44       0.43
      8.12       0.08      -0.37
      8.12       0.13      -0.07
      8.61      -0.05       0.01
      7.79       0.33       0.27
      6.95      -0.06      -0.24
      7.42       0.35       0.29
      8.28      -0.09      -0.47
      8.27      -0.53       0.05
      7.81      -0.11      -0.44
      6.77      -0.45      -0.12
      7.58      -0.70       0.33
      8.13      -0.84      -0.35
      7.39      -0.13      -0.18
      7.78       0.30       0.18
      8.26       0.47      -0.42
      8.13       0.13      -0.51
      8.61      -0.43      -0.64
      8.61       0.10      -0.26
      7.31       0.40       0.56
      7.76      -0.03      -0.35
      7.77      -0.44      -0.57
      7.65      -0.53      -0.06
      7.51      -0.12      -0.02
      6.89      -0.23      -0.30
      7.33      -0.28       0.15
      7.27      -0.40       0.41
      7.08      -0.22       0.28
      7.05      -0.11       0.31
      7.08      -0.14       0.44
      7.19      -0.08       0.51
      7.44       0.15       0.29
      7.55       0.19       0.26
      7.79      -0.20       0.30
      8.03      -0.25       0.30
      8.07      -0.09       0.24
      8.05       0.19       0.08
      4.10       0.42       0.71
      8.80       0.59       0.18
      8.54       0.62       0.29
      8.51       0.32       0.44
      8.52      -0.20      -0.09
      8.58       0.02      -0.08
      8.30       0.17       0.09
      7.98       0.11       0.14
      8.20       0.03       0.23
      8.28      -0.09       0.03
      8.78      -0.09      -0.09
      9.21      -0.00       0.16
      7.70      -0.24       0.06
      7.88      -0.14       0.26
      7.63      -0.21       0.53
      7.58      -0.39       0.43
      7.88      -0.54       0.17
      7.71      -0.20       0.37
      7.85      -0.14       0.18
      8.04      -0.30       0.24
      8.28      -0.50       0.06
      8.75      -0.96       0.01
      9.12      -0.85       0.25
      8.27      -0.25       0.05
      8.53      -0.25      -0.14
      8.75      -0.28      -0.15
      9.25       0.04       0.04
      8.81      -0.09      -0.52
      8.24      -0.40       0.57
      7.63       0.21       0.63
      7.69       0.00      -0.11
      8.24      -0.09      -0.69
      8.48      -0.34      -0.50
      8.26      -0.75       0.04
      8.18       0.38      -0.81
      8.48      -0.02      -0.50
      7.24      -0.19       0.52
      7.26      -0.09       0.78
      7.81       0.20       0.66
      8.10       0.18       0.52
      8.11       0.03       0.29
      8.09       0.13       0.07
      8.33       0.08      -0.17
      8.11       0.15      -0.05
      7.75       0.32       0.44
      8.02       0.04       0.34
      8.44      -0.27       0.09
      6.64       0.37      -0.38
      8.25       1.06       0.81
      8.26       0.38       0.68
      8.52       0.15       0.22
      8.62       0.14       0.02
      8.67       0.09       0.08
      9.15      -0.31      -0.12
      8.91      -0.04       0.17
      8.77       0.52      -0.09
      8.74       0.39      -0.45
      8.60      -0.18      -0.07
      8.42      -0.20       0.29
      8.44       0.12       0.13
      8.43      -0.07       0.26
      8.02       0.03       0.48
      7.83      -0.11       0.16
      7.78      -0.47       0.38
      8.07      -0.79       0.46
      8.22      -0.72       0.33
      7.92      -0.58       0.23
      8.04      -0.60       0.36
      8.22      -0.65       0.43
      8.51      -0.56       0.42
      8.81      -0.23       0.09
      9.15      -0.33       0.11
      9.18      -0.27      -0.11
      8.70       0.25      -0.56
      9.18       0.22       0.26
      8.19       0.01       0.56
      8.38      -0.16       0.21
      8.50       0.07      -0.35
      8.34       0.31      -0.70
      8.56       0.27      -0.31
      8.30      -0.42      -0.21
      8.71       0.29      -0.66
      8.85      -0.08      -0.43
      8.89      -0.32       0.20
      8.64      -0.33       0.40
      8.29      -0.26       0.80
      8.40      -0.06       0.62
      8.47      -0.61       0.18
      8.11      -0.86      -0.13
      8.29      -0.99      -0.23
      8.77      -0.24      -0.16
      8.74       0.01      -0.11
      9.07       0.10      -0.22
      9.21       0.22      -0.30
      9.41       0.16      -0.41
      9.69       0.16       0.31
      9.36       0.72       0.53
      9.71       0.32       0.27
      9.52      -0.18      -0.01
      9.13      -0.14       0.10
      9.13      -0.22       0.03
      8.91      -0.50       0.13
      9.02      -0.49      -0.09
      9.25      -0.08      -0.47
      9.07       0.03       0.01
      8.69      -0.06       0.53
      8.59       0.03       0.04
      8.98      -0.08       0.05
      9.46       0.06       0.35
      8.60       0.02       0.67
      8.50       0.04       0.39
      8.64      -0.56      -0.15
      8.89      -0.74      -0.09
      9.03      -0.45       0.03
      8.94      -0.53       0.13
      8.58      -0.81       0.10
      8.58      -0.91       0.38
      8.94      -0.73       0.38
      8.98      -0.84       0.33
      9.30      -0.51       0.28
      9.58      -0.20       0.07
      9.55      -0.12       0.42
      9.66       0.07       0.49
      9.36       0.32       0.22
      9.51      -0.26      -0.38
      9.37      -0.14      -0.84
      8.34       0.38      -0.09
      8.23      -0.05      -0.08
      8.59       0.13       0.08
      8.67      -0.19       0.33
      8.72      -0.86       0.36
      8.54      -0.75       0.21
      8.56      -0.49       0.53
      8.99      -0.34       0.59
     10.04      -0.57       0.30
      9.62      -0.33      -0.12
      8.84      -0.81       0.67
      8.35      -1.70       0.43
      8.35      -1.51      -0.22
      8.73      -0.89      -0.39
      8.58      -0.90      -0.55
      8.65      -0.62      -0.53
      8.86      -0.31       0.27
      9.07      -0.35       0.64
      9.30      -0.40       0.35
      9.24      -0.16       0.33
      8.77      -0.38       0.37
      8.72      -0.77       0.23
      9.02      -0.95       0.08
      9.03      -0.91      -0.38
      9.27      -0.50      -0.27
      9.36      -0.11      -0.04
      9.60      -0.38       0.16
      9.87      -0.06       0.04
      9.62       0.03      -0.15
      9.04      -0.30       0.36
      8.96      -0.03       0.55
      9.27       0.05       0.13
      9.29      -0.10      -0.27
      9.37      -0.50      -0.21
      9.03      -0.39       0.10
      9.00      -0.64       0.23
      9.73      -1.20      -0.17
      9.71      -1.34      -0.19
      9.19      -0.86       0.31
      9.09      -0.80       0.33
      9.27      -0.85       0.39
      9.50      -0.57       0.44
      9.41      -0.25       0.60
      9.64       0.25       0.46
     10.15       0.17      -0.01
      9.42      -0.16      -0.33
      9.14      -0.55      -0.46
      9.31      -0.54      -0.43
      9.95      -0.29      -0.35
      8.99      -0.50       0.17
      8.84      -0.37       0.46
      9.19      -0.55       0.58
      9.02      -0.71       0.24
      9.18      -0.94       0.36
      9.58      -0.52       0.24
      9.92      -0.38       0.01
      9.78      -0.87       0.69
      8.44      -0.96       1.03
      7.95      -0.62       0.85
      8.13      -0.68       0.65
      8.71      -1.01       0.07
      9.15      -0.91      -0.08
      8.88      -0.88      -0.09
      8.78      -1.05      -0.19
      8.87      -0.89       0.18
      8.76      -0.97       0.42
      8.77      -1.10       0.35
      8.81      -0.98       0.43
      9.10      -1.14       0.25
      9.33      -1.23      -0.12
      9.09      -0.90      -0.26
      8.81      -0.71      -0.24
      8.70      -0.74      -0.17
      8.86      -0.43      -0.15
      9.32       0.11       0.03
      9.48       0.21      -0.04
      9.00       0.03       0.13
      9.03      -0.16       0.03
      9.30      -0.24      -0.04
      9.30      -0.33      -0.15
      9.22      -0.57      -0.15
      9.18      -0.65      -0.24
      9.35      -0.52      -0.02
      9.29      -0.73       0.16
      9.35      -0.83       0.11
      9.58      -0.70      -0.15
      9.51      -0.79      -0.43
      9.55      -0.95      -0.01
      9.82      -0.99       0.54
      9.88      -1.12       0.47
      9.94      -0.92       0.08
     10.13      -0.86      -0.14
     10.18      -1.08      -0.33
     10.12      -0.77      -0.24
      9.82      -0.58      -0.52
      9.71      -0.63      -0.58
      9.19      -0.66       0.16
      8.96      -0.58       0.37
      9.22      -0.84       0.51
      9.46      -0.89       0.57
      9.35      -0.34       0.11
      9.04      -0.52       0.05
      8.63      -0.87       0.53
      8.55      -0.64       0.95
      8.91      -0.07       0.67
      9.26       0.03       0.25
      9.44      -0.38       0.15
      9.38      -0.28       0.09
      9.55      -0.45       0.22
      9.43      -0.54       0.10
      9.29      -0.85       0.08
      9.33      -1.18       0.14
      9.44      -1.18      -0.01
      9.66      -1.08       0.33
      9.99      -0.91       0.49
     10.09      -1.25       0.25
      9.71      -1.22       0.25
      9.39      -0.93      -0.04
      8.98      -1.04      -0.37
      8.96      -0.77      -0.21
      8.85      -0.43      -0.05
      8.84      -0.23      -0.16
      9.14      -0.08       0.02
      9.38       0.08       0.17
      9.34      -0.02       0.23
      9.37      -0.20       0.27
      9.66      -0.38       0.09
      9.87      -0.27      -0.28
      9.85      -0.35      -0.21
      9.75      -0.75      -0.05
      9.71      -0.92      -0.12
      9.90      -0.84      -0.15
     10.13      -0.60      -0.16
     10.16      -0.45      -0.17
     10.00      -0.36      -0.24
     10.29      -0.67      -0.21
     10.32      -1.02      -0.25
      9.87      -0.88      -0.18
     10.03      -0.87      -0.07
     10.35      -0.63      -0.49
     10.12      -0.40      -0.55
      9.99      -0.49      -0.32
     10.07      -0.65      -0.39
      9.04      -0.38       0.50
      8.89      -0.52       0.49
      9.02      -0.43       0.69
      9.43      -0.10       0.65
      9.40       0.09       0.50
      8.98      -0.16       0.35
      8.90      -0.70       0.50
      9.43      -0.77       0.38
      9.87      -0.37       0.21
      9.89      -0.23       0.07
     10.03      -0.49       0.12
      9.96      -0.68       0.08
      9.90      -0.52       0.09
      9.77      -0.64       0.36
      9.71      -0.88       0.37
      9.57      -0.80       0.16
      9.99      -0.85      -0.04
      9.81      -0.96       0.11
      9.19      -1.02       0.49
      9.30      -1.21       0.54
      9.61      -1.18       0.24
      9.61      -0.85      -0.15
      9.64      -0.81      -0.19
      9.62      -1.02       0.03
      9.50      -1.05      -0.32
      9.58      -0.99      -0.36
      9.59      -0.87       0.10
      9.23      -0.53       0.18
      9.15      -0.28       0.17
      9.39      -0.18      -0.00
      9.86      -0.34      -0.19
     10.35      -0.59      -0.22
     10.30      -0.69      -0.03
      9.93      -0.53       0.11
      9.89      -0.30       0.15
     10.20      -0.37       0.03
     10.28      -0.59      -0.19
     10.30      -0.71      -0.19
     10.53      -0.55      -0.25
     10.45      -0.61      -0.10
      9.97      -0.65       0.09
     10.04      -0.91      -0.03
      9.87      -0.93      -0.22
      9.87      -0.70      -0.39
      9.94      -0.70      -0.28
      9.77      -0.95      -0.06
      9.77      -1.24      -0.12
      9.64      -0.17       0.45
      9.57      -0.14       0.26
      9.27      -0.08       0.57
      9.16       0.16       0.72
      9.16       0.25       0.48
      9.23       0.08       0.20
      9.32       0.05       0.17
      9.39       0.30       0.13
      9.67       0.42       0.14
      9.89       0.48       0.23
     10.11       0.26       0.16
     10.04       0.05      -0.08
      9.92      -0.34      -0.00
     10.08      -0.62       0.27
     10.07      -0.70       0.23
      9.84      -0.66       0.22
      9.57      -0.81       0.15
      9.52      -1.08       0.23
      9.56      -1.18       0.26
      9.59      -1.12       0.10
      9.71      -1.22      -0.03
      9.85      -1.49      -0.13
     10.04      -1.28      -0.09
     10.07      -1.00       0.01
      9.97      -0.91       0.04
      9.78      -0.84      -0.03
      9.57      -0.80       0.00
      9.54      -0.80       0.09
      9.65      -0.83       0.05
      9.85      -0.71      -0.07
     10.21      -0.66      -0.21
     10.32      -0.72      -0.25
     10.35      -0.55      -0.13
     10.56      -0.48      -0.30
     10.45      -0.75      -0.28
     10.19      -0.79      -0.06
     10.12      -0.95      -0.05
     10.16      -1.15      -0.25
     10.33      -0.71      -0.30
     10.23      -0.66      -0.14
     10.03      -1.02       0.04
     10.04      -0.83       0.12
     10.08      -0.64      -0.06
     10.11      -0.70      -0.11
     10.11      -0.65      -0.04
     10.12      -0.46       0.08
     10.42      -0.72      -0.16
