# vtk DataFile Version 3.0
Low resolution, disturbed wind of XY Slice at time = 9 seconds.
ASCII
DATASET STRUCTURED_POINTS
DIMENSIONS    47    26     1
ORIGIN     635.00     635.00      85.00
SPACING      30.00      30.00      30.00
POINT_DATA            1222
VECTORS DisXY float
      8.42       0.76       0.59
      8.65       0.56       0.62
      8.91       0.81       0.54
      9.14       0.97       0.63
      8.08       0.33       0.27
      8.48       0.48       0.76
      8.30       0.76       0.79
      8.06       0.32       0.94
      8.35       0.08       0.56
      8.67       0.08       0.20
      9.04       0.31      -0.34
      9.08       0.14      -0.19
      9.18       0.09      -0.05
      9.08       0.08       0.03
      8.86      -0.27      -0.28
      8.57       0.22      -0.04
      9.18       0.32      -0.62
      9.50       1.20      -0.21
      9.05       1.62      -0.03
      9.03       0.68       0.10
      8.47       0.21       0.21
      8.34       0.65      -0.34
      8.52       0.31      -0.44
      8.03       0.06      -0.03
      8.52      -0.22       0.17
      8.51      -0.18       0.05
      8.77      -0.17       0.06
      8.14       0.52       0.13
      7.66       0.43       0.57
      7.23      -0.01      -0.18
      8.36       0.41      -0.02
      6.91      -0.21       0.49
      7.07      -0.48       0.54
      6.50      -0.62       0.42
      6.76      -0.17       0.69
      6.85       0.32       0.56
      6.63       0.57       0.18
      6.70      -0.03       0.22
      7.43       0.62       0.44
      6.91       0.08       0.59
      6.60      -0.21       0.33
      7.10       0.36       0.68
      7.47       0.55       0.24
      7.92       0.64      -0.11
      7.53       1.04       0.39
      7.44       0.23       0.06
      7.86       0.06      -0.30
      8.35       0.92       0.04
      8.16       0.72       0.79
      8.23       0.50       0.32
      8.01       0.52       0.14
      8.04       0.23       0.24
      7.93       0.20       0.25
      7.88       0.36       0.30
      7.82       0.20      -0.16
      7.83       0.16      -0.08
      8.34       0.19       0.00
      8.23       0.15      -0.03
      8.30       0.39       0.09
      7.44       0.32       0.62
      7.68       0.13       0.46
      8.65      -0.16      -0.19
      8.93       0.18      -0.23
      8.91       0.50      -0.22
      8.85       0.62      -0.50
      9.16       0.85      -0.21
      8.76       0.67       0.03
      8.65       0.49      -0.00
      8.56       0.57      -0.39
      8.42       0.64      -0.27
      8.54       0.54       0.09
      8.11      -0.17       0.41
      8.27       0.01       0.18
      8.09      -0.31       0.23
      8.20       0.90      -0.26
      8.31       0.87       0.07
      8.66      -0.28      -0.22
      8.11       1.00       0.16
      8.13       0.50      -0.30
      7.73       0.09       0.34
      6.96      -0.38       1.04
      7.24      -0.42       0.04
      7.08      -0.17      -0.40
      7.12      -0.13      -0.09
      7.66      -0.07      -0.02
      7.71       0.58       0.27
      7.73      -0.26       0.18
      6.98      -0.07       0.70
      7.05       0.03       1.12
      7.15       0.64       0.18
      7.44       0.75      -0.16
      7.64       0.81       0.20
      7.87       0.29      -0.14
      7.85       0.29      -0.06
      7.51       1.01       0.95
      7.71       0.69       0.52
      7.44       0.38       0.12
      6.99       0.23       0.03
      7.20      -0.09       0.25
      7.36      -0.17       0.29
      7.11      -0.14       0.20
      7.31      -0.15       0.33
      7.51       0.29       0.17
      8.24       0.30      -0.02
      8.59       0.40       0.08
      7.93       0.20       0.25
      7.96       0.07      -0.08
      8.57       0.07      -0.10
      8.38       0.30      -0.15
      7.49      -0.17       0.17
      7.79       0.12       0.15
      8.30       0.48      -0.08
      8.39       0.56      -0.37
      8.28       0.45       0.01
      8.45       0.87      -0.41
      8.37       0.62       0.23
      8.83       0.11       0.62
      9.05       0.43       0.60
      8.04       0.19       0.20
      7.59      -0.21      -0.13
      7.32       0.03      -0.08
      7.25       0.34       0.72
      7.78       0.47       0.16
      7.41       0.38      -0.12
      7.09       0.58       0.59
      7.74       0.65       0.07
      7.48       0.20       0.14
      7.00      -0.25       0.21
      6.86      -0.61       0.25
      6.89      -0.53       0.40
      7.41      -0.53       0.36
      7.73      -0.15      -0.34
      8.53       0.00      -0.78
      8.38      -0.13      -0.47
      7.62       0.59       0.15
      8.04       0.29       0.05
      7.70       0.16      -0.40
      7.51       0.85       0.17
      7.89       0.92       0.32
      7.86       0.49       0.30
      6.81       0.80       0.62
      7.87       0.75       0.28
      7.45       0.18       0.73
      7.19       0.32      -0.38
      6.93      -0.12       0.25
      6.90      -0.24       0.70
      7.18      -0.24       0.10
      7.39       0.18       0.41
      7.87       0.06      -0.06
      8.05       0.23      -0.20
      7.58       0.39       0.03
      7.66       0.33      -0.13
      7.87       0.02      -0.82
      7.58       0.06       0.23
      7.20      -0.30      -0.01
      7.80       0.11       0.38
      7.17      -0.01       0.19
      7.17       0.14       0.41
      7.43       0.08       0.59
      7.39       0.17      -0.12
      7.69       0.41      -0.16
      7.42       0.35       0.83
      7.04       0.79       0.93
      6.98       0.55       0.43
      7.27       0.50       0.18
      7.80       0.31      -0.19
      8.04       0.12       0.24
      7.74       0.17      -0.30
      7.57       0.59      -0.32
      7.04       0.50       0.15
      7.32       1.07       0.72
      7.33       0.22       0.33
      7.08       0.31       0.45
      7.39       0.13       0.74
      7.74       0.36       0.01
      7.54      -0.13       0.25
      7.16      -0.49       0.69
      7.43      -0.45      -0.01
      7.80       0.03      -0.48
      8.09      -0.40      -0.53
      8.48      -0.07      -0.32
      7.93       0.64       0.09
      8.11       0.84      -0.12
      8.02       0.67       0.31
      7.51       0.03      -0.29
      6.76       0.28       0.38
      6.34       0.67       0.94
      6.50       0.49       1.07
      7.51       0.54       0.38
      6.49       0.50       0.99
      6.94       0.15       0.04
      7.54       0.44      -0.27
      6.89      -0.25      -0.25
      6.22      -0.26       0.41
      6.49       0.20       0.16
      6.88       0.13       0.57
      7.19       0.28       0.45
      7.05       0.44       0.14
      7.27       0.44      -0.08
      6.10       0.19       0.45
      5.95       0.12       0.34
      6.25      -0.20       0.44
      6.52      -0.69       0.62
      7.07      -0.50       0.07
      6.94       0.17      -0.27
      7.45       0.33       0.39
      7.22       0.42       0.51
      7.46       0.39       0.14
      7.47       0.57       0.43
      7.00       0.66       0.87
      7.37       0.51      -0.17
      7.03       0.54      -0.01
      7.25       0.42       0.05
      7.65       0.07      -0.26
      7.33       0.04       0.19
      7.43       0.79       0.16
      7.60       0.81       0.18
      7.41       1.26       0.06
      7.82       0.20       0.18
      7.51       0.44      -0.10
      8.50       0.18       0.30
      7.90      -0.04      -0.64
      8.51      -0.15       0.06
      7.63      -0.06       0.21
      6.96       0.04       0.91
      7.12       0.35       0.74
      7.23      -0.19       0.04
      7.13      -0.33       0.23
      7.09       0.23      -0.45
      7.38       0.70      -0.14
      7.00       0.45       0.66
      6.77       0.60       0.46
      6.29       0.89       0.35
      7.23       0.47       0.22
      7.46      -0.25       0.10
      7.22       0.74       0.23
      7.37       0.67       0.23
      6.89       0.32      -0.04
      7.04       0.46       0.14
      7.40      -0.01      -0.26
      7.47       0.15      -0.39
      7.66       0.19      -0.24
      8.35      -0.18      -0.42
      6.90       0.21      -0.16
      6.75       0.38       0.09
      6.37       0.24       0.58
      6.46       0.05       0.33
      6.73       0.10       0.24
      7.21      -0.01       0.23
      7.28      -0.29       0.23
      6.63      -0.33       0.57
      6.76      -0.02       0.49
      6.86       0.28       0.21
      6.96       0.72       0.34
      6.71       0.59       0.54
      6.46       0.71       0.75
      6.71       0.46       0.42
      6.98       0.17       0.57
      7.22       0.06       0.25
      7.77      -0.02      -0.02
      7.49      -0.17      -0.09
      7.61      -0.25      -0.15
      7.62       0.26      -0.14
      7.56       0.82       0.02
      7.83       0.84      -0.19
      7.90       0.36      -0.19
      8.08       0.12      -0.15
      7.49      -0.11       0.01
      7.02      -0.06      -0.24
      7.17       0.17      -0.00
      7.13       0.21       0.07
      7.39       0.04      -0.08
      7.76      -0.00      -0.47
      7.28      -0.01      -0.16
      6.91       0.30       0.25
      6.66       0.29       0.51
      6.68       0.95       0.55
      6.70       0.45       0.41
      6.82       0.62       0.72
      7.27       0.21       0.32
      7.46      -0.11      -0.05
      7.64      -0.00      -0.06
      7.05       0.51       0.58
      7.29       0.87       0.23
      7.13       0.69      -0.13
      7.28      -0.08       0.48
      7.61      -0.31       0.51
      7.72      -0.32       0.25
      8.10      -0.45       0.10
      8.31       0.16      -0.05
      8.40       0.56      -0.61
      8.31       0.68      -0.85
      8.23      -0.30      -0.81
      7.86       0.04      -0.24
      8.07      -0.21      -0.00
      7.80      -0.32       0.03
      7.55       0.11      -0.13
      7.63       0.07      -0.10
      7.98       0.03       0.01
      7.88       0.23       0.37
      7.60       0.15       0.08
      7.27       0.58       0.49
      7.38       0.56       0.27
      7.16       0.22       0.28
      7.57       0.38      -0.07
      7.93       0.45      -0.25
      7.83      -0.00      -0.47
      8.23      -0.35      -0.51
      8.27      -0.09      -0.55
      7.69       0.35      -0.23
      7.78       0.38      -0.38
      7.73       0.50      -0.16
      7.99       0.51       0.24
      7.57       0.65       0.16
      7.29      -0.11       0.00
      7.32       0.09      -0.01
      7.11       0.30      -0.01
      7.18       0.03      -0.20
      7.10      -0.05       0.25
      7.49       0.15       0.18
      7.30       0.06       0.09
      7.01       0.68       0.17
      7.20       0.39      -0.17
      7.04       0.57       0.01
      7.10       0.26       0.37
      7.45       0.54       0.04
      7.57       0.30       0.23
      7.75      -0.12      -0.08
      7.69      -0.04      -0.01
      7.25       0.57       0.21
      6.94       1.15       0.06
      7.12       0.48       0.35
      8.20      -0.65       0.18
      7.61      -1.06       0.16
      7.76      -0.34       0.08
      7.79      -0.14      -0.11
      8.08       0.23      -0.02
      8.39       0.30       0.04
      8.61      -0.02      -0.21
      8.63      -0.30      -0.49
      8.53       0.45      -0.09
      9.00       0.20      -0.58
      7.82       0.01       0.20
      7.69      -0.01      -0.30
      7.22      -0.16       0.37
      7.34      -0.05       0.40
      7.46       0.68       0.23
      7.38       0.32      -0.05
      7.23      -0.30       0.36
      7.25      -0.22       0.41
      7.60       0.06       0.42
      7.67       0.18      -0.00
      8.03       0.18      -0.07
      7.93      -0.21       0.01
      7.46      -0.22       0.04
      7.28       0.19       0.22
      7.32       0.23      -0.52
      7.62       0.32      -0.08
      7.53       0.32       0.22
      7.71       0.45       0.40
      8.00       0.24       0.06
      8.05      -0.05      -0.29
      8.24       0.15      -0.16
      8.03       0.07      -0.09
      7.43      -0.30      -0.02
      7.67      -0.30      -0.47
      7.59      -0.06      -0.11
      7.37       0.15       0.07
      7.38       0.61      -0.13
      7.52       0.26      -0.23
      7.66       0.25      -0.26
      7.98       0.05      -0.05
      7.86       0.18      -0.09
      8.22      -0.11      -0.30
      7.91       0.08      -0.39
      8.13      -0.03      -0.09
      7.71       0.88      -0.20
      7.79       0.51      -0.07
      8.06      -0.13      -0.08
      8.42      -0.92      -0.12
      7.92      -0.75      -0.59
      7.79      -0.22       0.27
      7.83       0.11       0.11
      8.22       0.11       0.02
      8.41       0.24      -0.13
      7.86      -0.24      -0.14
      7.91      -0.03      -0.12
      8.72       0.17      -0.16
      8.65       0.12      -0.17
      7.98       0.19       0.23
      7.91       0.50      -0.01
      7.58       0.27       0.18
      7.03      -0.16       0.53
      6.85       0.34       0.43
      7.46       0.02       0.23
      7.66      -0.38       0.07
      7.30      -0.45      -0.21
      7.39      -0.63      -0.14
      7.21      -0.40      -0.06
      7.86       0.00       0.13
      8.01       0.18       0.08
      7.73       0.07      -0.05
      7.56       0.10      -0.24
      7.70      -0.19      -0.34
      7.48       0.14      -0.12
      7.26      -0.02       0.18
      7.63       0.03       0.22
      7.42      -0.14       0.09
      7.48      -0.43      -0.27
      7.91      -0.02      -0.46
      8.08       0.17      -0.20
      7.83      -0.14      -0.15
      7.11      -0.52       0.12
      7.20      -0.23       0.21
      7.54       0.39       0.06
      7.55       0.06      -0.09
      7.36      -0.13       0.18
      7.29      -0.01      -0.14
      7.88       0.24      -0.32
      8.14       0.00      -0.41
      8.33      -0.08      -0.51
      7.79      -0.24      -0.38
      7.86      -0.23      -0.47
      8.79       0.50       0.02
      8.66      -0.01      -0.48
      8.85      -0.01       0.08
      8.32      -0.67      -0.03
      7.20      -0.29       0.53
      7.52       0.07       0.22
      8.01      -0.02       0.20
      7.70      -0.20       0.08
      7.93       0.27       0.27
      7.71       0.32       0.03
      7.81      -0.21      -0.04
      7.68       0.16       0.08
      7.79       0.61       0.47
      7.98       0.50       0.03
      7.91       0.58       0.23
      7.36       0.40       0.18
      7.16      -0.09       0.04
      7.67       0.09       0.03
      7.61      -0.03       0.06
      7.74      -0.37       0.14
      7.47      -0.45       0.08
      7.18      -0.82      -0.17
      7.13      -0.56      -0.15
      7.56      -0.61       0.12
      7.72       0.09       0.44
      7.62       0.34      -0.03
      7.67       0.13      -0.33
      7.41       0.49      -0.40
      7.05       0.02      -0.07
      6.98      -0.17       0.28
      7.31      -0.37       0.12
      7.54       0.08      -0.13
      7.69      -0.29      -0.22
      7.87      -0.05      -0.05
      7.80       0.24      -0.11
      8.04       0.36      -0.30
      7.07       0.05       0.12
      7.43       0.19       0.26
      7.17       0.23       0.01
      7.60      -0.02      -0.30
      7.68      -0.12      -0.03
      7.44      -0.21       0.11
      7.09       0.33       0.18
      7.01      -0.41       0.04
      7.91      -0.24      -0.53
      8.31      -0.29      -0.81
      8.52      -0.09      -0.18
      8.55       0.32      -0.61
      8.35       0.24      -0.16
      7.96       0.01      -0.52
      8.18       0.29      -0.09
      8.09       0.06      -0.41
      7.76       0.30       0.10
      8.61      -0.11      -0.21
      7.75      -0.55       0.10
      7.87      -0.33       0.12
      7.66       0.70       0.18
      7.96       0.36       0.25
      7.67       0.12       0.28
      4.82       0.81       0.04
      4.96       0.86       0.01
      4.97       0.59       0.46
      7.41       0.31       0.43
      7.41       0.33       0.16
      7.26      -0.02       0.49
      7.52       0.01       0.09
      7.43      -0.28      -0.05
      7.72      -0.40       0.27
      8.11      -0.35      -0.23
      7.52      -0.06      -0.28
      6.91      -0.30       0.70
      7.06       0.50       0.71
      7.40       0.27       0.12
      7.31       0.33      -0.23
      7.18       0.18      -0.30
      7.20       0.16       0.06
      6.73       0.04       0.81
      6.74      -0.60       0.05
      6.80      -0.50      -0.21
      6.80      -0.10      -0.39
      6.98       0.15      -0.05
      7.35       0.17      -0.45
      7.77       0.27      -0.41
      7.30       0.19      -0.14
      7.03       0.34       0.46
      7.57       0.08      -0.26
      7.81       0.31      -0.24
      7.54       0.27       0.02
      7.68       0.20       0.22
      7.61       0.41       0.34
      7.76      -0.65       0.01
      7.80      -0.44      -0.25
      7.88      -0.12      -0.55
      8.12      -0.15      -0.71
      7.51       0.28      -0.22
      7.31      -0.38      -0.01
      7.94       0.05      -0.47
      7.17       0.43      -0.47
      6.99       0.02       0.27
      7.44       0.04       0.51
      7.31      -0.29       0.01
      7.13      -0.31      -0.10
      7.17       0.11       0.28
      6.96       0.19       0.24
      7.30       0.49       0.13
      7.10       0.66       0.53
      4.48       0.81       0.33
      3.27       0.62       0.42
      3.79       0.23       0.92
      7.59       0.12       0.47
      7.46       0.07       0.31
      7.65       0.30       0.48
      7.43      -0.23      -0.01
      7.45      -0.15       0.09
      7.55      -0.29       0.32
      7.81      -0.00      -0.55
      7.69      -0.13      -0.54
      7.62       0.32       0.24
      6.76       0.23       0.19
      6.71       0.06       0.11
      7.17       0.21      -0.04
      7.16       0.10       0.08
      7.50       0.30       0.17
      7.43       0.31       0.07
      7.46      -0.19      -0.55
      6.48      -0.05       0.45
      6.29      -0.53       0.24
      6.49      -0.53       0.06
      6.80      -0.64      -0.04
      7.05      -0.03      -0.03
      6.41       0.63       0.01
      7.05      -0.03       0.17
      7.05       0.04       0.26
      7.11       0.23      -0.25
      6.82       0.07       0.53
      7.01      -0.40       0.54
      8.14      -0.03       0.09
      7.52      -0.32      -0.32
      7.98       0.05      -0.62
      7.86      -0.24      -0.93
      7.66      -0.07      -0.35
      6.58       0.37      -0.05
      6.56       0.22       0.15
      6.55       0.33       0.01
      6.71      -0.01       0.24
      7.10      -0.21       0.35
      7.04      -0.31       0.24
      6.86      -0.31       0.16
      6.73      -0.26       0.40
      7.02       0.02       0.22
      6.90       0.14       0.66
      7.11       0.38       0.35
      7.46       0.52       0.32
      4.99       0.66       0.28
      4.46      -0.11       0.53
      4.74       0.11       0.68
      7.98       0.23       0.26
      7.58       0.16       0.26
      7.93      -0.40       0.07
      7.90      -0.02      -0.07
      7.86      -0.29      -0.15
      7.52      -0.52       0.05
      7.90       0.05      -0.40
      6.82       0.17      -0.05
      6.52       0.52       0.54
      6.99       0.16       0.42
      7.56      -0.30      -0.03
      7.55      -0.34       0.09
      7.92       0.05       0.10
      8.07       0.22       0.03
      6.80       0.27      -0.37
      6.85       0.12       0.46
      6.72       0.21       0.43
      7.00      -0.18       0.40
      7.60      -0.40      -0.70
      7.52      -0.45      -0.88
      7.06      -0.23      -0.05
      7.64       0.68      -0.25
      7.96       0.43      -0.51
      6.75       0.59       0.10
      7.85       0.37      -0.38
      7.89      -0.08      -0.45
      7.95       0.37      -0.43
      7.69       0.04       0.06
      7.16      -0.19       0.36
      7.09      -0.24      -0.17
      6.59      -0.23      -0.19
      6.42      -0.00      -0.04
      6.91       0.36       0.21
      6.62       0.34      -0.02
      6.65      -0.12       0.33
      6.66      -0.49       0.60
      6.64      -0.63       0.27
      6.94      -0.57       0.15
      7.27      -0.71      -0.13
      7.44      -0.69      -0.05
      7.66      -0.26       0.03
      7.32       0.09       0.14
      7.19       0.32       0.10
      7.44       0.01       0.35
      5.30       0.13       0.58
      4.14       0.26       0.45
      4.36       0.09       0.31
      7.94       0.56      -0.13
      8.02       0.60      -0.36
      7.89       0.16       0.24
      7.19      -0.51       0.22
      7.39      -0.45       0.15
      7.65      -0.15       0.51
      7.35       0.20       0.08
      7.09       0.57       0.07
      7.48       0.16       0.03
      7.54      -0.46      -0.28
      7.18       0.10       0.02
      6.66      -0.19       0.59
      6.84      -0.29       0.71
      6.82       0.08       0.23
      6.96       0.63       0.53
      7.25       0.38      -0.29
      7.15      -0.07      -0.11
      7.35      -0.01      -0.21
      7.18      -0.79       0.19
      7.06      -0.19      -0.30
      5.95      -0.30       1.00
      6.72      -0.13       0.45
      7.12       0.38      -0.13
      7.44       0.00      -0.54
      7.58      -0.04      -0.19
      7.62       0.33      -0.63
      7.11      -0.11      -0.24
      7.20      -0.24       0.39
      6.83       0.56       0.79
      6.79       0.47      -0.09
      6.54       0.25      -0.03
      6.80       0.23      -0.04
      6.77      -0.02       0.13
      6.82      -0.14       0.02
      6.91      -0.39      -0.39
      7.40      -0.47      -0.86
      7.50      -0.67      -0.56
      6.96      -0.44      -0.03
      7.11      -0.36       0.16
      7.40      -0.39      -0.01
      7.16      -0.08      -0.13
      7.33       0.03       0.05
      7.74      -0.02       0.05
      8.08       0.08       0.15
      5.32       0.03       0.27
      3.62       0.32       0.55
      4.27       0.12      -0.31
      8.12       0.01      -0.53
      8.39       0.32      -0.45
      8.24      -0.23      -0.55
      7.96       0.21      -0.36
      7.37      -0.05      -0.19
      7.69       0.59       0.41
      7.70       0.23       0.21
      8.21       0.13      -0.20
      8.10      -0.06      -0.49
      8.34      -0.18      -0.42
      7.47      -0.25       0.17
      7.32       0.31       0.60
      6.50       0.17       0.60
      6.58       0.21       0.43
      7.15       0.27       0.52
      7.64       0.59      -0.26
      8.12      -0.40      -1.02
      8.28      -0.31      -0.98
      7.76       0.15      -0.36
      6.45       0.39      -0.24
      6.23      -0.27      -0.32
      6.53       0.02       0.17
      6.78       0.70       0.31
      7.44       0.24       0.20
      6.93      -0.10       0.38
      6.80       0.15       0.36
      7.01       0.08       0.38
      6.88      -0.17       0.16
      7.11       0.18       0.25
      7.61       0.37       0.17
      7.48       0.55      -0.16
      6.95       0.61      -0.39
      6.45      -0.44       1.18
      6.60      -0.41       1.02
      6.95      -0.87       0.08
      7.35      -0.50      -0.30
      6.35       0.12       0.05
      7.26      -0.04      -0.25
      7.40      -0.46       0.10
      7.16      -0.35       0.36
      7.11      -0.10       0.15
      7.70      -0.56       0.09
      7.47      -0.44       0.35
      7.69       0.02      -0.06
      7.54      -0.43      -0.60
      7.61      -0.27      -0.69
      7.21      -0.47      -0.50
      7.62      -0.27       0.13
      6.73      -0.37      -0.05
      6.49      -0.15       0.42
      6.76       0.26       0.32
      6.80      -0.53      -0.20
      7.26      -0.23      -0.14
      7.77      -0.07      -0.32
      7.74      -0.14      -0.54
      7.74       0.39      -0.03
      7.15       0.36      -0.11
      7.93       0.22      -0.56
      7.44       0.77       0.67
      7.60      -0.27       0.04
      7.62      -0.25      -0.08
      8.10      -0.12       0.15
      7.97      -0.13       0.38
      7.81      -0.45      -0.06
      8.27      -0.46      -0.64
      8.08      -0.01      -0.61
      7.51       0.62       0.20
      7.46       0.16      -0.32
      7.87       0.45      -0.11
      7.27       0.49       0.12
      6.36       0.44       0.31
      6.50       0.62       0.55
      6.90       0.38       0.36
      6.74      -0.02       0.18
      6.47       0.11      -0.10
      6.57       0.03       0.27
      6.81       0.06       0.40
      7.17       0.18       0.42
      7.15       0.68       0.27
      6.98      -0.22       0.34
      6.53      -0.49      -0.08
      7.15      -0.33      -0.36
      7.64      -0.31      -0.73
      8.00      -0.86      -0.93
      7.96      -0.83      -0.45
      8.04      -0.34      -0.30
      7.67      -0.31       0.29
      7.69      -0.28       0.21
      7.85      -0.62      -0.13
      7.56       0.02      -0.05
      7.21      -0.69      -0.03
      7.88      -0.39      -0.20
      7.73      -0.46      -0.14
      7.12      -0.14       0.13
      7.34      -0.21       0.35
      6.52       0.15       0.27
      6.00      -0.15       0.24
      6.36      -0.37       0.48
      6.63      -0.34       0.67
      6.98      -0.40       0.16
      6.22       0.23       0.25
      6.41       0.63       0.07
      6.85       0.45      -0.17
      7.57      -0.37      -0.09
      7.67      -0.18       0.54
      8.03       0.11       0.18
      7.54      -0.40      -0.11
      6.94      -0.40       0.12
      6.60      -0.28       0.46
      6.80      -0.51       0.47
      7.16      -0.38       0.05
      7.05       0.02       0.35
      7.21       0.40       0.52
      7.32       0.03       0.04
      8.65       0.44      -0.54
      8.35       0.43      -0.53
      8.03       0.48       0.07
      7.74       0.68      -0.08
      7.67       0.38      -0.44
      7.39       0.55      -0.13
      7.27       0.41      -0.35
      7.00       0.62      -0.22
      7.65      -0.19      -0.32
      6.77       0.02       0.07
      7.22      -0.24       0.32
      7.52      -0.09       0.48
      7.90      -0.18      -0.07
      8.01      -0.28       0.01
      7.97       0.08      -0.59
      8.24       0.07      -0.77
      8.50       0.04      -0.94
      8.21      -0.18      -1.05
      8.49      -0.33      -0.53
      8.41      -0.27      -0.54
      8.50      -0.35      -0.33
      8.37      -0.38       0.19
      6.85       0.55       0.39
      7.28      -0.33      -0.30
      7.21      -0.81      -0.03
      7.55      -0.68       0.12
      7.09      -0.15       0.02
      7.09      -0.00       0.00
      7.23       0.22       0.53
      6.57       0.22       0.14
      6.97      -0.23      -0.24
      7.08      -0.25       0.19
      7.13      -0.56       0.46
      7.12      -0.48       0.53
      7.08       0.18       0.66
      7.83      -0.72       0.50
      7.97      -0.80      -0.02
      8.11      -0.60      -0.26
      8.29      -0.12       0.11
      8.55      -0.34      -0.25
      7.80       0.16      -0.52
      7.71      -0.13      -0.56
      7.05      -0.22       0.38
      6.75      -0.24       1.06
      6.74       0.05       0.79
      6.93      -0.50       0.36
      7.35      -0.12       0.66
      7.71       0.15      -0.11
      7.05       0.47      -0.01
      7.29       0.35       0.04
      7.38       0.38       0.43
      7.31       0.33       0.08
      7.15       0.60      -0.20
      7.51       0.63      -0.29
      7.82       0.15      -0.41
      7.60       0.18      -0.12
      7.77       0.00      -0.18
      7.95      -0.13      -0.54
      7.74      -0.33      -0.10
      8.01      -0.24      -0.00
      7.35      -0.43       0.38
      7.82       0.15      -0.18
      8.04       0.01      -0.96
      8.22      -0.01      -0.11
      7.68      -0.43      -0.30
      7.88      -0.32      -0.56
      8.46      -0.37      -0.81
      8.21      -0.28      -0.57
      8.36      -0.07      -0.22
      8.82      -0.22       0.18
      8.01      -0.59      -0.34
      8.19      -0.18      -0.30
      7.50      -0.36      -0.23
      7.37      -0.21       0.33
      7.15      -0.38       0.45
      7.41       0.33       0.10
      6.78       0.06       0.30
      6.96      -0.69       0.71
      7.43      -0.88       0.39
      7.89      -0.95       0.33
      7.99      -0.48       0.36
      7.90      -0.37       0.15
      7.52      -0.70      -0.30
      7.62      -0.69       0.38
      7.61      -0.94       0.23
      8.07      -0.21      -0.51
      8.75      -0.16      -0.57
      8.74       0.28      -0.82
      8.20       0.02      -0.71
      8.17      -0.11      -0.84
      7.28       0.02       0.31
      7.55      -0.07       0.45
      7.35      -0.29       0.14
      7.20      -0.28       0.14
      7.25      -0.15       0.41
      7.65       0.09       0.54
      7.40       0.14       0.50
      7.35      -0.24       0.27
      7.66       0.03       0.15
      7.90       0.11      -0.35
      8.20       0.12      -0.50
      8.22       0.33      -0.19
      7.79       0.26       0.13
      7.70       0.09       0.01
      7.51      -0.02      -0.21
      7.61      -0.34      -0.17
      8.39      -0.35       0.15
      7.73      -0.37       0.13
      7.39      -0.33       0.07
      7.65       0.54       0.00
      7.82       0.05      -0.26
      7.87      -0.28      -0.50
      8.17       0.01      -0.83