# vtk DataFile Version 3.0
Low resolution, disturbed wind of XY Slice at time = 54 seconds.
ASCII
DATASET STRUCTURED_POINTS
DIMENSIONS    47    26     1
ORIGIN     635.00     635.00      85.00
SPACING      30.00      30.00      30.00
POINT_DATA            1222
VECTORS DisXY float
      7.81      -0.12      -0.98
      8.08       0.60      -0.71
      7.77      -0.32      -0.04
      8.14       0.11       0.05
      8.41       0.11       0.40
      8.63       0.08       0.73
      8.27      -0.36       0.40
      8.23      -0.07      -0.16
      8.31      -0.98       0.16
      8.65      -0.10       0.02
      9.00       0.09       0.28
      8.76       0.72      -0.13
      8.77       0.26       0.14
      8.11       0.29       0.84
      8.41       0.60       0.51
      8.83       0.34      -0.13
      8.59       0.11       0.08
      7.94       0.29       0.68
      8.03       0.74       0.78
      8.34       0.50       0.30
      8.39       0.26       0.52
      8.49       0.06       0.00
      8.71       0.04       0.29
      8.72      -0.23      -0.57
      8.51       0.26       0.27
      8.54       0.83       0.00
      9.15       0.30       0.53
      8.67      -0.43      -0.34
      9.10       0.44       0.14
      8.41       0.76       0.68
      9.23       1.03      -0.19
      7.86       0.68       0.04
      7.95       0.75       0.67
      7.97       0.57       0.14
      8.70       0.71      -0.25
      8.36      -0.01      -0.39
      8.52       0.42       0.26
      8.42      -0.42      -0.48
      8.39       0.34       0.11
      7.92       0.10       0.65
      7.83       0.21      -0.17
      7.54      -0.43       0.42
      7.06       0.63       0.29
      6.91      -0.32       0.46
      6.93      -0.31       0.40
      6.85       0.03       0.14
      7.22      -0.40      -0.31
      7.80       0.37      -0.64
      7.72       0.10      -0.32
      8.37       0.06      -0.15
      7.58       0.00       0.12
      7.50      -0.44       0.32
      7.66      -0.62      -0.00
      7.49      -0.28       0.29
      7.46      -0.47      -0.20
      7.81      -0.92      -0.17
      8.03      -0.72      -0.51
      8.45      -0.01      -0.41
      7.86       0.80       0.52
      7.47       0.32       0.86
      7.39       0.04       0.74
      7.32       0.22       0.22
      7.53       0.57       0.72
      8.01       0.44       0.46
      8.10       0.63       0.40
      7.98       0.41       0.33
      7.81       0.52      -0.22
      7.63      -0.04       0.12
      8.23       0.27      -0.40
      7.79      -0.49      -0.07
      7.65       0.06       0.48
      7.49       0.65       0.42
      7.91       0.18      -0.10
      8.71       0.08      -0.07
      8.63       0.17      -0.13
      8.62      -0.12       0.25
      8.63       0.54      -0.04
      8.70       1.17      -0.12
      8.49       1.13       0.12
      8.88       0.60       0.15
      8.39       0.38      -0.13
      8.09       0.47       0.19
      8.46       0.22       0.12
      8.15       0.20       0.47
      8.20      -0.87      -0.42
      8.27       0.64       0.20
      7.90       0.89       0.34
      9.06       0.02       0.03
      7.81       0.46       0.32
      7.64       0.74      -0.11
      7.94       0.03       0.01
      7.66      -0.31      -0.04
      7.63      -0.07      -0.03
      7.28      -0.39      -0.12
      7.53       0.30      -0.40
      7.65       0.14       0.09
      7.12      -0.20       0.13
      7.66      -0.15       0.43
      7.87      -0.75      -0.52
      7.87      -0.94      -0.26
      7.95      -0.35      -0.35
      8.06      -0.23      -0.60
      7.87      -0.80       0.05
      7.79      -0.63       0.51
      7.58       0.61      -0.19
      8.03       1.12      -0.09
      8.02       0.16       0.71
      7.52       0.12       0.21
      7.19       0.06      -0.10
      7.51       0.58       0.10
      7.54       0.45       0.19
      7.57       0.43       0.40
      7.73       0.23       0.34
      7.48       0.11       0.41
      7.51      -0.22       0.14
      7.71       0.08       0.00
      8.08       0.40       0.06
      7.66       0.08       0.40
      8.31       0.17       0.10
      8.76       0.23       0.10
      8.27      -0.16      -0.07
      8.02       0.02       0.39
      8.48       0.53       0.42
      8.50       0.32      -0.28
      8.66       0.74      -0.33
      9.17       1.15      -0.20
      9.01       0.41      -0.41
      8.48       0.73       0.33
      8.20       1.05       0.08
      8.40       0.78       0.88
      8.42      -0.05       0.01
      7.87      -0.55       0.24
      7.81       0.22       0.20
      8.00       0.50      -0.03
      7.72       0.46       0.41
      8.20       0.57       0.29
      8.19       0.69      -0.11
      7.37       0.08       0.36
      7.43      -0.26       0.09
      7.55      -0.50       0.47
      7.52      -0.61       0.45
      7.13       0.81       0.60
      6.75       0.55       0.47
      6.52      -0.18       0.50
      6.82      -0.77       0.42
      7.20      -0.51       0.22
      7.30      -0.60      -0.04
      7.08      -0.73      -0.35
      6.68      -0.82       0.22
      6.76      -0.31       0.57
      7.00      -0.11       0.66
      7.22      -0.53       0.73
      6.95       0.02       0.40
      7.16       0.06       0.05
      7.24       0.29       0.36
      7.19       0.03       0.64
      7.18       0.30       0.38
      7.60       0.11       0.45
      7.24       0.29       0.32
      7.64       0.26      -0.37
      7.48      -0.27      -0.80
      7.84      -0.05       0.25
      7.92       0.45      -0.18
      7.75       0.41      -0.29
      7.25      -0.27       0.16
      7.44      -0.14       0.13
      7.23      -0.21       0.47
      7.65      -0.20       0.42
      7.85      -0.14       0.46
      7.07       0.44       0.04
      7.42       0.39      -0.43
      7.52      -0.09       0.08
      8.11       0.61       0.12
      8.83       0.78       0.42
      7.90       0.52       0.93
      8.02       0.65       0.78
      7.88       0.24       0.48
      7.79       0.79      -0.13
      7.59       0.03      -0.05
      8.10       0.03      -0.40
      7.72       0.89      -0.03
      7.44       0.17       0.08
      7.10       0.18       0.46
      7.46       0.61       0.22
      7.75       0.43       0.16
      7.30       0.24       0.25
      7.59      -0.57       0.31
      7.53      -0.37       0.57
      6.91       1.28       0.47
      6.87       0.33       0.25
      7.08      -1.12      -0.04
      7.13      -1.33      -0.29
      7.42      -0.72       0.83
      7.53      -0.65       0.36
      8.38       0.19      -0.34
      8.35       0.39      -0.04
      6.10      -0.34       0.54
      5.76      -0.03       0.63
      6.26      -0.09       0.20
      5.71       0.38       0.62
      6.09       0.45       0.77
      6.67      -0.06       0.20
      6.75      -0.18      -0.07
      6.38      -0.15       0.34
      6.89       0.09       0.24
      6.71      -0.12       0.21
      7.47       0.49       0.55
      7.15       0.15      -0.08
      6.65       0.06       0.66
      6.22      -0.15       0.44
      6.51       0.36       0.40
      6.82       0.22       1.07
      6.47      -0.43       0.31
      6.42      -0.47       0.53
      6.75      -0.09       0.23
      6.73      -0.21       0.26
      6.77       0.08       0.57
      7.64       0.12      -0.40
      7.44       0.00       0.05
      6.93       0.47       0.42
      6.99       0.38       0.32
      7.10       0.45       0.35
      7.63       0.92      -0.06
      6.99       0.46       0.09
      7.52       0.26       0.23
      7.44       0.32       0.03
      7.41       0.50      -0.20
      7.71       0.74       0.09
      7.82       0.45       0.38
      7.84       0.20       0.44
      7.67      -0.09       0.68
      7.72       0.26       0.18
      8.01      -0.39       0.14
      8.15       0.04      -0.21
      7.15      -0.13       0.67
      6.86       1.15       0.80
      6.94      -0.14       0.80
      6.60      -0.33       0.93
      7.31      -1.01       0.19
      7.01      -1.18      -0.23
      6.71      -0.53       0.92
      6.96      -0.28       0.28
      6.81       0.01       0.27
      7.16       0.44       0.13
      7.25       0.41       0.15
      7.04       0.58      -0.29
      6.87       0.23      -0.19
      7.05       0.21       0.36
      6.90       0.03       0.05
      7.19      -0.12      -0.07
      7.46       0.22      -0.09
      7.34       0.09       0.00
      7.77      -0.10      -0.32
      8.13      -0.43      -0.61
      7.67      -0.06      -0.29
      7.93       0.43      -0.56
      7.38       0.23      -0.12
      6.98       0.37      -0.05
      6.86       0.15       0.26
      6.41      -0.48       0.34
      6.92      -0.15       0.67
      6.81      -0.20       0.74
      6.88       0.01       0.24
      6.81       0.12       0.30
      6.67       0.22       0.65
      6.28       0.08       0.73
      6.25       0.07       1.03
      6.37       0.10       0.66
      6.66       0.38       0.33
      7.19       0.66       0.41
      7.47       0.41       0.06
      7.66       0.07      -0.32
      7.87       0.06      -0.22
      7.74       0.02       0.05
      7.63       0.68       0.02
      7.67       0.52      -0.16
      7.90       0.36      -0.02
      7.89      -0.09       0.04
      7.52       0.03      -0.14
      7.31       0.13      -0.33
      7.22       0.05       0.32
      7.31      -0.13       0.16
      6.26       0.55       1.14
      6.61      -0.13       0.64
      7.32      -0.55       0.14
      7.35      -0.83      -0.22
      7.29      -0.26      -0.13
      7.13      -0.64       0.39
      6.80      -0.24       0.54
      6.67       0.11       0.37
      7.09       0.43       0.33
      7.35       0.10      -0.09
      7.46       0.42      -0.13
      7.46       0.60      -0.55
      7.61       0.26      -0.24
      7.24       0.39      -0.14
      6.83      -0.24       0.42
      7.41      -0.44      -0.13
      7.90      -0.56       0.30
      7.85      -0.25      -0.19
      8.02      -0.02      -0.07
      8.28      -0.02      -0.78
      7.38       0.80      -0.42
      7.07       0.36      -0.01
      7.85      -0.33      -0.24
      7.91       0.04      -0.24
      8.30      -0.72      -0.59
      8.12      -0.40       0.07
      7.84      -0.12      -0.10
      7.63       0.16       0.23
      7.48       0.77       0.01
      7.25       0.26      -0.40
      7.34       0.24       0.38
      7.05      -0.04       0.06
      6.32       0.27       0.92
      7.21       0.27       0.81
      7.77       0.20       0.10
      7.62       0.26      -0.40
      7.52       0.21      -0.59
      7.99      -0.25      -0.05
      7.87       0.09      -0.38
      7.68       0.39      -0.10
      7.87       0.67       0.02
      7.70       0.32       0.15
      7.37       0.52       0.26
      7.23       0.18       0.09
      7.33       0.53      -0.02
      7.26       0.26      -0.13
      7.34      -0.19       0.05
      9.06      -0.32      -0.85
      7.96      -0.10      -0.08
      8.04      -0.63      -0.26
      8.27      -0.31      -0.32
      8.33      -0.28      -0.34
      8.45      -0.52       0.45
      8.12      -0.84      -0.14
      7.73      -0.18       0.09
      7.69       0.24       0.44
      7.51       0.44       0.01
      7.52       0.61       0.02
      8.16      -0.02      -0.35
      7.75       0.73      -0.24
      7.52       0.81       0.29
      7.95      -0.14       0.16
      8.38      -1.22       0.01
      8.05      -0.25      -0.33
      8.08      -0.33       0.03
      8.04      -0.20      -0.41
      8.09      -0.04      -0.16
      7.58       0.29      -0.43
      8.59       0.12      -0.51
      8.67      -0.07      -0.25
      8.27       0.15      -0.21
      8.03      -0.44      -0.35
      7.51      -0.01       0.18
      7.31      -0.65       0.18
      7.39      -0.04       0.50
      7.83       0.78       0.44
      7.90       0.55       0.04
      7.55       0.21      -0.25
      7.60      -0.29       0.46
      7.68      -0.21       0.23
      7.59       0.06       0.06
      7.75       0.12       0.24
      7.82       0.26      -0.07
      7.05       0.22       0.28
      7.27      -0.12      -0.21
      7.46       0.03      -0.52
      7.85       0.01      -0.19
      7.87       0.46      -0.60
      7.25       0.96       0.46
      8.20       0.76      -0.42
      8.10       0.02      -0.05
      7.88       0.36      -0.20
      8.20      -0.13      -0.18
      8.42      -0.24      -0.21
      8.26      -0.06      -0.01
      8.13      -0.13      -0.39
      8.23      -0.53      -0.58
      8.12      -0.12      -0.18
      8.40       0.39      -0.12
      8.61      -0.58       0.39
      8.52      -0.66       0.44
      8.58      -0.92      -0.05
      8.22      -0.06       0.03
      8.10       0.22       0.49
      8.32       0.11      -0.18
      7.99      -0.16      -0.43
      7.15       1.04       0.17
      7.75       0.00       0.18
      8.06      -0.09      -0.00
      7.85      -0.56       0.33
      7.53      -0.24       0.47
      7.28       0.03       0.56
      7.93      -0.27       0.51
      8.38      -0.31       0.17
      8.97       0.13      -0.76
      8.42      -0.27       0.12
      8.39      -0.07      -0.27
      8.20       0.30       0.02
      7.69       0.09      -0.22
      7.79       0.26       0.27
      7.93       0.17      -0.13
      7.33       0.06       0.62
      7.35      -0.27       0.34
      7.54       0.40       0.05
      7.64      -0.05      -0.00
      7.15      -0.50       0.36
      7.05      -0.64       0.31
      7.42      -0.80       0.08
      7.68      -0.43      -0.37
      7.99       0.12      -0.05
      7.78      -0.03      -0.33
      7.47       0.31       0.02
      7.24      -0.33      -0.50
      7.47       0.30       0.19
      7.44       0.24       0.16
      7.93       0.42      -0.02
      7.57       0.34       0.22
      7.49      -0.42      -0.06
      7.73       0.15       0.05
      8.14      -0.12      -0.22
      8.32       0.18       0.03
      8.15      -0.53      -0.07
      7.59      -0.20      -0.56
      7.92      -0.54      -0.39
      8.08      -0.77      -0.60
      7.86      -0.39      -1.14
      8.37      -0.46      -1.19
      8.81      -0.63      -0.91
      9.02      -0.40      -0.60
      8.80      -0.15      -0.39
      8.96       0.31      -0.65
      9.19       0.15      -0.19
      8.02       0.47      -0.11
      8.34       0.86      -0.16
      7.92       0.31       0.20
      7.80       0.07      -0.06
      7.87       0.08       0.56
      7.34      -0.13      -0.08
      7.72       0.30      -0.19
      7.59      -0.80       0.01
      8.23      -0.49       0.10
      8.21       0.07       0.16
      7.69       0.07       0.25
      8.08       0.21       0.18
      8.17       0.39       0.23
      7.28       0.34      -0.27
      7.83       0.30       0.13
      7.59       0.20       0.36
      7.21       0.23       0.75
      7.48      -0.31       0.16
      7.99       0.09      -0.13
      7.42      -0.69      -0.06
      7.71      -0.21       0.08
      7.77      -0.98      -0.19
      7.10      -0.46       0.49
      7.67      -0.52      -0.72
      8.00       0.25       0.03
      7.34       0.03       0.13
      7.56       0.16      -0.19
      7.70       0.39      -0.71
      7.07       0.14       0.18
      6.87      -0.29       0.13
      7.39      -0.27      -0.35
      7.97       0.15      -0.61
      8.02       0.01      -0.28
      7.80      -0.11      -0.37
      7.90      -0.08      -0.12
      7.27      -0.27       0.18
      7.90      -0.34      -0.01
      7.07       0.15      -0.15
      7.56      -1.11      -0.35
      6.99      -0.96       0.20
      7.33      -0.85       0.46
      7.04      -1.08       0.23
      7.38      -1.39      -0.19
      7.35      -0.65      -0.19
      8.12       0.16       0.19
      8.11       0.69       0.00
      8.06       0.32      -0.29
      8.01       0.69      -0.30
      5.33       0.25       0.16
      5.05       0.38      -0.35
      5.88       0.43       0.22
      4.62       0.25       0.63
      4.38       0.07       0.26
      4.50       0.15       0.26
      4.84      -0.57       0.84
      4.93      -0.49       0.79
      4.90       0.02       0.22
      5.63       0.14      -0.09
      5.79       0.52       0.62
      5.77       0.26       0.77
      7.14       0.21       0.31
      7.50       0.41       0.10
      7.75       0.80       0.30
      7.60       0.17       0.10
      7.27      -0.32       0.62
      7.50      -0.01       0.31
      7.06      -0.49       0.17
      7.34      -0.55       0.20
      7.43      -0.38      -0.29
      8.02      -0.20       0.01
      7.20      -0.40       1.02
      6.74       0.31       0.00
      6.96       0.28       0.13
      7.27      -0.02      -0.40
      7.02       0.44       0.02
      7.24       0.61       0.15
      6.63      -0.08       0.31
      6.67      -0.53       0.29
      6.53      -0.54      -0.21
      6.49      -0.37      -0.20
      6.71      -0.23       0.31
      7.34       0.39      -0.33
      7.29       0.32       0.34
      7.25      -0.30       0.04
      7.38      -0.41      -0.69
      6.61      -0.33       0.26
      6.50      -0.66       1.11
      6.80      -0.53      -0.16
      6.79      -0.59       0.40
      6.22      -0.80       0.29
      7.03      -0.27       0.82
      7.11       0.66       1.07
      7.25       0.09      -0.13
      7.41       0.21      -0.35
      7.46       0.34      -0.49
      4.58       0.39      -0.14
      3.43       0.43       0.73
      4.40       0.74       0.42
      3.73       0.04       0.16
      3.53       0.10       0.50
      3.53      -0.48       0.68
      2.73      -0.35       0.92
      3.22      -0.45       0.80
      2.89       0.41       1.12
      2.93       0.45       0.92
      3.36       0.47       0.93
      4.00       0.36       0.53
      7.10       0.61       0.37
      7.39       0.18       0.25
      7.40       0.07       0.39
      7.58      -0.27       0.48
      7.44       0.04       0.40
      7.96      -0.45       0.22
      8.09      -0.20       0.10
      7.63      -0.20       0.00
      7.56      -0.03      -0.24
      7.66      -0.19      -0.43
      8.00       0.28      -0.56
      7.11       0.06       0.63
      7.00       0.08       0.23
      6.86      -0.00      -0.11
      7.17      -0.02      -0.01
      7.31       0.73       0.06
      6.99       0.02      -0.28
      7.13       0.02       0.04
      7.09      -0.54       0.98
      6.77      -1.64      -0.05
      7.22      -0.37      -0.37
      6.90      -0.61      -0.10
      6.79       0.56       0.32
      7.14      -0.06       0.00
      7.17      -0.10      -0.41
      6.96      -0.55       0.02
      6.87      -0.17       0.36
      6.48      -0.74       0.65
      6.81      -0.76       0.17
      6.69       0.11       0.22
      7.47      -0.35       0.76
      6.73      -0.23       0.05
      7.26       0.33       0.15
      6.78       0.08       0.38
      6.75       0.14       0.38
      4.73      -0.02       0.61
      3.77      -0.05       0.42
      3.56       0.12       0.69
      3.64       0.16       1.20
      3.75      -0.51       0.56
      3.87      -0.39       0.25
      4.16      -0.57       0.10
      3.98      -0.46       0.59
      3.90      -0.37       0.63
      3.87       0.03       0.67
      3.97       0.21       0.37
      3.92       0.23       0.50
      7.65       0.21       0.14
      7.39       0.59       0.32
      7.34       0.06       0.89
      7.30       0.12       0.52
      7.34      -0.48       0.38
      7.73      -0.29       0.35
      7.54      -0.36       0.66
      8.28      -0.12      -0.18
      8.26       0.14      -0.54
      7.24       0.09       0.04
      7.14       0.37       0.05
      6.98      -0.44       0.30
      7.68      -0.32      -0.11
      7.46      -0.13      -0.13
      8.20      -0.15      -0.16
      7.36       0.72      -0.02
      7.24       0.35      -0.27
      7.40       0.65       0.01
      6.80      -0.02      -0.10
      7.27      -0.88      -0.68
      6.86      -1.13      -0.72
      8.17      -0.02      -0.64
      6.81       0.23       0.15
      7.67      -0.12      -0.22
      6.78       0.16       0.05
      6.46      -0.74       0.27
      6.58      -0.41       0.04
      6.70      -0.51       0.10
      7.13      -0.77      -0.07
      7.15      -0.43      -0.19
      7.14      -0.33      -0.03
      7.06      -0.71       0.25
      6.82      -0.11       0.38
      6.49       0.20       0.29
      6.25       0.28       0.22
      4.17      -0.42       0.95
      2.79       0.05       1.05
      2.92       0.08       0.76
      3.15      -0.46       0.09
      3.56      -0.76       0.30
      3.59      -0.60       0.09
      3.72      -0.55      -0.04
      3.85      -0.47       0.01
      3.85      -0.18       0.42
      3.99      -0.07       0.32
      3.87      -0.18       0.62
      4.33       0.10       0.39
      7.87      -0.02      -0.03
      7.82       0.03      -0.23
      7.86       0.36      -0.34
      7.59       0.14       0.10
      7.61       0.32       0.31
      7.44      -0.53       0.83
      6.91      -0.46       0.38
      7.18      -0.66      -0.25
      6.72       0.20      -0.18
      6.83       0.88       0.19
      7.14       0.13       0.25
      7.62      -0.47      -0.06
      7.69      -1.00      -0.00
      7.31      -0.38       0.28
      6.99       0.00       0.58
      7.31       0.25       0.16
      7.22       0.71       0.19
      7.31       0.89       0.10
      7.87      -0.20      -0.68
      7.25      -0.73      -0.22
      7.37      -0.66      -0.90
      6.08      -0.79       0.74
      7.17       0.35       0.47
      7.98       0.29      -0.28
      8.04      -0.22      -0.19
      7.45       0.01      -0.09
      7.01      -0.38       0.17
      6.09      -0.55       0.38
      5.87      -0.92       0.60
      5.88      -0.68       0.32
      5.83      -0.32       0.45
      6.06      -0.81       0.43
      6.46      -0.50       0.14
      6.68      -0.64       0.16
      7.14      -0.01      -0.11
      4.10      -0.39       0.29
      2.64       0.05       0.46
      2.94      -0.21      -0.08
      3.63      -0.17       0.09
      4.83      -0.67       0.09
      4.95      -0.14       0.37
      5.07      -0.11       0.34
      4.97      -0.10       0.29
      5.17      -0.28       0.37
      5.16      -0.52       0.51
      5.51      -0.14       0.58
      5.60       0.02       0.01
      8.18       0.11      -0.23
      7.41       0.15      -0.59
      7.53      -0.13       0.05
      7.91      -0.07      -0.37
      8.45       0.30      -0.57
      8.54      -0.02      -0.01
      8.36       0.24       0.31
      7.78       0.31      -0.13
      7.65      -0.03       0.04
      7.70       0.03      -0.16
      7.92      -0.07      -0.50
      7.72      -0.36       0.36
      7.36      -0.64      -0.17
      7.18      -0.15       0.34
      6.92       0.46       0.11
      6.55       0.02       0.57
      7.14      -0.00       0.41
      7.92       0.22       0.11
      7.85      -0.50      -0.09
      7.99      -0.41      -0.82
      7.94      -0.10      -0.56
      7.56       0.02       0.11
      7.37      -0.59       0.31
      8.27      -0.09      -0.23
      7.63       0.20      -0.19
      7.12       0.28       0.10
      7.06       0.28       0.08
      7.13       0.26      -0.78
      7.01      -0.69      -0.10
      7.06      -0.40       0.77
      7.58      -0.55       0.11
      6.86      -0.96      -0.02
      7.61      -0.64       0.16
      7.71      -1.18       0.02
      7.54      -0.44       0.08
      6.98      -0.57       0.64
      6.84      -0.04      -0.32
      6.70       0.42      -0.82
      7.40       0.38       0.30
      7.35      -0.27      -0.09
      7.14      -0.13      -0.11
      7.14      -0.06      -0.04
      7.42      -0.14       0.38
      7.26      -0.47       0.12
      7.83      -0.76      -0.12
      7.09      -0.30      -0.49
      6.90       0.02      -0.48
      7.56      -0.20      -0.68
      8.17      -0.45      -0.18
      7.55      -0.28      -0.27
      7.65      -0.10      -0.00
      6.87       0.04      -0.40
      6.81      -0.02      -0.07
      7.14      -0.15       0.17
      7.85       0.20      -0.09
      7.93      -0.25      -0.28
      8.13       0.31      -0.67
      7.68       0.07      -0.53
      7.79       0.45       0.32
      7.69       0.45      -0.56
      6.90       0.66       0.24
      6.71      -0.57       0.48
      7.64      -0.26       0.28
      6.89      -0.69       0.57
      7.67      -0.43       0.18
      7.92      -0.47       0.18
      7.89      -0.61       0.43
      8.10      -0.06      -1.13
      8.16       0.73      -0.48
      7.45       0.56       0.37
      8.27       0.29       0.08
      8.03      -0.05      -0.19
      7.89       0.03      -0.27
      7.34       0.23      -0.07
      7.15       0.19      -0.39
      8.03       0.05      -0.86
      7.52      -0.55       0.05
      8.44      -0.59      -0.20
      8.24      -0.18       0.04
      8.10      -0.31      -0.02
      7.79      -0.69       0.23
      7.29      -0.35       0.46
      7.59      -0.40      -0.52
      7.28      -0.17      -1.01
      6.93       0.06      -0.84
      7.26      -0.22      -1.02
      7.59      -0.13      -1.21
      7.67       0.18      -0.05
      7.32      -0.22       0.28
      7.74      -0.24       0.40
      8.08      -0.71       0.11
      7.86      -0.60       0.32
      7.87      -0.30       0.20
      7.24      -0.49      -0.03
      7.36      -0.62       0.07
      7.21      -0.12      -0.32
      7.00      -0.61      -0.18
      7.00       0.19       0.47
      6.64      -0.29       0.29
      7.19       0.32       0.35
      7.00      -0.42       0.30
      7.08      -0.11      -0.17
      7.37      -0.16       0.06
      6.48       0.21       0.23
      6.92       0.06       0.20
      7.36      -0.67       0.08
      6.96       0.59       0.41
      8.55      -0.20      -0.19
      8.29       0.42       0.27
      7.40      -0.27       0.30
      7.25      -0.85      -0.51
      7.82      -0.92       0.52
      7.13      -0.75       0.61
      6.85      -0.19       0.58
      6.92      -0.16       0.45
      7.21       0.45       0.34
      7.00       0.68       0.57
      7.53      -0.08       0.25
      7.95       0.25      -0.02
      7.82       0.79      -0.05
      8.00       0.28      -0.56
      7.60      -0.32      -0.38
      7.88      -0.42      -0.16
      7.94       0.23      -0.45
      8.24      -0.11      -0.33
      8.63      -0.22      -0.17
      8.94      -0.29      -0.01
      8.19      -0.32      -0.48
      7.99       0.14       0.31
      7.99      -0.46       0.22
      7.96       0.03      -0.13
      7.49      -0.56      -0.11
      7.87      -0.50      -0.10
      7.77      -0.25      -0.20
      7.88       0.16      -0.82
      8.30       0.26      -1.05
      9.00      -0.32      -1.04
      8.12      -0.48      -0.77
      8.28      -0.08       0.08
      8.21       0.01       0.18
      8.11      -0.60       0.21
      8.07      -0.40      -0.52
      7.48      -0.65       0.15
      6.90       0.04       0.55
      6.89       0.42      -0.08
      6.94      -0.03       0.37
      6.65      -0.51       0.47
      7.29      -0.26       0.66
      7.81      -0.86       0.12
      7.15       0.13      -0.05
      7.32       0.20      -0.67
      7.57      -0.23       0.38
      7.58      -0.53      -0.25
      7.89      -0.86      -0.28
      8.27      -0.95       0.27
      8.23      -0.41      -0.58
      8.16      -0.12      -0.51
      7.42      -0.33      -0.47
      7.28      -0.21      -0.04
      6.98      -0.11       0.65
      6.98      -0.48       0.53
      6.94      -0.67       0.35
      6.62      -0.14       0.55
      7.71       0.14      -0.47
      8.39      -0.45      -0.80
      8.56      -0.40       0.07
      7.92       0.90       0.19
      7.91       0.43      -0.42
      8.08      -0.20      -0.91
      8.14      -0.30      -0.40
      8.38      -0.22      -0.28
      8.12      -0.42       0.05
      8.64      -0.42      -0.16
      8.34      -0.23       0.25
      7.89       0.14       0.07
      8.32      -0.03       0.16
      9.17      -0.13       0.11
      7.77      -0.27       0.51
      8.06      -0.17      -0.54
      6.86      -0.18       0.57
      7.15      -0.14       0.15
      7.65       0.17      -0.49
      6.95      -0.23      -0.16
      7.57      -0.48      -0.25
      8.24      -0.39      -0.30
      8.38       0.11      -0.29
      9.19      -0.14       0.09
      8.04      -0.07      -0.02
      7.15      -0.10      -0.43
      7.31       0.15      -0.15
      7.34       0.21      -0.07
      7.32       0.33       0.28
      7.02      -0.17       0.72
      7.35      -0.74       0.47
      7.88      -1.01       0.04
      7.43      -1.07      -0.05
      7.56       0.28       0.28
      7.70       0.04      -0.04
      7.63      -0.38       0.35
      7.81      -0.55       0.02
      7.66      -0.58      -0.36
      8.05      -1.21       0.03
      7.71      -0.62       0.20
      8.17      -0.30      -0.83
      8.02      -0.17      -0.59
      8.41      -0.06      -0.61
      8.47      -0.09      -0.34
      7.79       0.21       0.82
      7.65      -0.63      -0.08
      7.32      -0.18       0.02
      7.40      -0.37       0.50
      7.64      -0.21       0.18
      7.45      -0.05       0.58
      7.83       0.10       0.56
      8.25       0.46      -0.03
      8.39      -0.39      -0.70
      8.45       0.03      -1.05
      8.50       0.23      -0.48