# vtk DataFile Version 3.0
Low resolution, disturbed wind of XY Slice at time = 18 seconds.
ASCII
DATASET STRUCTURED_POINTS
DIMENSIONS    47    26     1
ORIGIN     635.00     635.00      85.00
SPACING      30.00      30.00      30.00
POINT_DATA            1222
VECTORS DisXY float
      8.92       0.13       0.20
      9.13       0.67       0.02
      8.80       0.58       0.37
      8.90       0.73       0.43
      8.97       0.66       0.49
      9.46       1.01       0.53
      8.19       0.30       0.23
      8.29       0.46       0.82
      8.61       0.87       0.56
      8.23       0.64       0.77
      8.43       0.23       0.64
      8.62       0.03       0.40
      8.80       0.23      -0.26
      8.96       0.28      -0.27
      9.15       0.08      -0.12
      9.12       0.26       0.07
      9.16      -0.17      -0.19
      8.55      -0.06      -0.01
      8.76       0.36      -0.44
      9.56       0.74      -0.17
      9.10       1.61      -0.13
      8.79       1.23       0.07
      8.37       0.41       0.47
      8.14       0.38      -0.08
      8.63       0.50      -0.41
      8.24       0.25      -0.36
      8.35      -0.07       0.13
      8.37      -0.11       0.03
      8.85      -0.36       0.07
      8.45       0.32      -0.07
      7.92       0.56       0.68
      7.10      -0.21      -0.05
      8.13       0.35      -0.21
      7.05       0.03       0.62
      6.99      -0.29       0.50
      6.63      -0.58       0.39
      6.66      -0.44       0.69
      6.95       0.44       0.37
      6.44       0.15       0.15
      6.69      -0.08       0.22
      7.23       0.60       0.56
      6.61      -0.16       0.31
      6.76      -0.11       0.31
      7.32       0.34       0.54
      7.81       0.55       0.34
      8.31       0.51      -0.12
      7.85       1.08       0.30
      8.07      -0.51       0.04
      8.04       0.74      -0.07
      8.20       0.85       0.07
      7.91       0.46       0.89
      7.88       0.42       0.62
      7.91       0.47       0.08
      8.10       0.49       0.17
      8.05       0.28       0.23
      7.75       0.39       0.44
      7.76       0.31       0.05
      7.74       0.17      -0.12
      8.22       0.19       0.03
      8.06       0.05      -0.04
      8.17       0.31      -0.00
      7.04       0.08       0.50
      7.24       0.29       0.72
      8.28      -0.04      -0.06
      8.89      -0.03      -0.20
      8.76       0.46      -0.12
      8.83       0.36      -0.29
      9.24       0.87      -0.48
      9.15       0.78      -0.23
      8.69       0.56       0.11
      8.75       0.49      -0.25
      8.32       0.65      -0.27
      8.61       0.71      -0.12
      8.27      -0.03       0.37
      8.22       0.06       0.24
      8.15      -0.43       0.31
      8.21       0.57      -0.07
      8.17       1.22       0.04
      8.68      -0.29      -0.16
      8.16       0.76       0.14
      7.98       0.67      -0.38
      8.07       0.20       0.13
      7.44      -0.42       0.96
      7.31      -0.34       0.01
      7.28      -0.01      -0.31
      7.05      -0.38      -0.02
      7.66      -0.08      -0.16
      7.65       0.61       0.24
      7.69      -0.07       0.07
      7.00      -0.24       0.78
      6.96       0.30       0.92
      6.85       0.47       0.46
      7.21       0.54      -0.27
      7.52       0.98       0.45
      7.68      -0.69      -0.12
      7.30       0.61       0.63
      7.66       0.85       1.07
      7.97       0.72       0.64
      7.51       0.45       0.10
      6.97       0.30       0.07
      7.23       0.05       0.21
      7.43      -0.12       0.29
      7.19       0.03       0.34
      7.29      -0.14       0.32
      7.38       0.22       0.35
      7.92       0.24       0.10
      8.56       0.28      -0.18
      8.11       0.34       0.24
      7.94       0.09       0.08
      8.44       0.01      -0.02
      8.61       0.36      -0.17
      7.62      -0.24       0.14
      7.74       0.13       0.15
      8.35       0.38       0.14
      8.39       0.67      -0.54
      8.45       0.48      -0.02
      8.48       0.72      -0.59
      8.02       0.87       0.09
      8.27       0.21       0.44
      9.05       0.52       0.73
      8.60       0.27       0.36
      7.83      -0.10      -0.04
      7.47      -0.16      -0.18
      7.33       0.16       0.67
      7.95       0.76       0.27
      7.69       0.23      -0.15
      7.39       0.40       0.53
      7.82       0.96      -0.15
      7.54       0.19       0.24
      7.07      -0.19       0.22
      6.86      -0.48       0.27
      6.94      -0.70       0.43
      7.31      -0.60       0.38
      7.51      -0.17      -0.17
      8.19       0.14      -0.83
      8.48      -0.06      -0.45
      7.74       0.50       0.08
      7.70       0.50       0.18
      7.75       0.19      -0.33
      7.60       0.55      -0.02
      7.88       1.47       0.19
      6.52      -0.04       0.44
      6.51       0.19       1.00
      7.51       0.58       0.44
      7.41       0.12       0.66
      7.11       0.39      -0.50
      6.92      -0.09       0.34
      6.94      -0.01       0.76
      7.14      -0.26       0.14
      7.40       0.23       0.40
      7.74       0.06       0.03
      8.07       0.25      -0.38
      7.78       0.31       0.04
      7.77       0.33      -0.00
      7.83       0.28      -0.82
      7.66      -0.02       0.13
      7.17      -0.33      -0.14
      7.78       0.08       0.43
      7.26      -0.12       0.21
      7.35       0.02       0.51
      7.47       0.04       0.53
      7.29       0.17      -0.10
      7.61       0.39      -0.19
      7.52       0.27       0.62
      7.18       0.89       0.86
      7.19       0.63       0.72
      7.27       0.63       0.18
      7.72       0.53      -0.12
      8.11       0.17       0.09
      7.74       0.16      -0.33
      7.59       0.39      -0.35
      7.18       0.58       0.13
      7.42       0.91       0.68
      7.27       0.08       0.38
      7.10       0.34       0.34
      7.47       0.24       0.71
      7.67       0.39       0.03
      7.49      -0.12       0.26
      7.04      -0.41       0.58
      7.43      -0.49       0.23
      7.90       0.03      -0.47
      7.87      -0.31      -0.72
      8.47      -0.22      -0.38
      7.97       0.52       0.09
      7.84       0.77      -0.29
      7.68       0.78       0.41
      7.70       0.06      -0.17
      6.76       0.38       0.20
      7.05       0.21       0.17
      7.19       0.69      -0.04
      6.98       0.33       0.48
      6.20       0.41       0.89
      6.66       0.25       0.14
      7.52       0.47      -0.17
      6.80      -0.24      -0.14
      6.28      -0.46       0.27
      6.54       0.29       0.27
      6.92       0.07       0.45
      7.11       0.31       0.57
      7.20       0.52       0.09
      7.06       0.31       0.06
      5.96       0.31       0.41
      6.09       0.09       0.49
      6.35      -0.16       0.49
      6.46      -0.92       0.63
      6.89      -0.48      -0.07
      7.04       0.18      -0.15
      7.26       0.38       0.49
      7.08       0.26       0.45
      7.48       0.35       0.09
      7.42       0.48       0.31
      7.02       0.64       0.85
      7.36       0.39      -0.12
      7.01       0.57       0.07
      7.22       0.53       0.17
      7.50       0.22      -0.27
      7.40      -0.09       0.24
      7.50       0.77       0.10
      7.55       0.60       0.14
      7.38       1.16      -0.00
      7.74       0.20       0.25
      7.33       0.30      -0.11
      8.34       0.27       0.42
      7.83      -0.04      -0.51
      8.32      -0.17      -0.06
      7.92      -0.07       0.16
      7.16       0.16       0.92
      7.20       0.35       0.73
      7.19      -0.24      -0.07
      7.20      -0.42       0.22
      7.09       0.17      -0.49
      7.51       0.53      -0.61
      7.33       0.39       0.59
      6.85       0.65       0.31
      6.41       0.86       0.67
      7.01       0.03       0.25
      7.49       0.34      -0.22
      7.29       0.72       0.26
      7.33       0.75       0.16
      6.79       0.15       0.12
      7.05       0.33       0.04
      7.39       0.07      -0.15
      7.46       0.18      -0.35
      7.54       0.21      -0.18
      8.30      -0.11      -0.54
      7.25       0.05      -0.28
      6.96       0.32      -0.13
      6.39       0.35       0.28
      6.42       0.20       0.35
      6.71       0.16       0.21
      7.10      -0.03       0.25
      7.22      -0.34       0.33
      6.67      -0.40       0.76
      6.93       0.06       0.50
      6.91       0.22       0.26
      7.07       0.81       0.30
      6.73       0.32       0.46
      6.57       0.53       0.89
      6.76       0.23       0.61
      6.94       0.05       0.61
      7.18       0.08       0.31
      7.62       0.04       0.13
      7.70      -0.07      -0.07
      7.57      -0.22      -0.18
      7.71       0.05      -0.14
      7.58       0.69      -0.10
      7.81       1.05       0.06
      7.84       0.27      -0.24
      7.96       0.27      -0.20
      7.70      -0.03       0.16
      7.17      -0.07      -0.34
      7.14       0.14      -0.07
      7.06       0.20       0.11
      7.34      -0.03       0.03
      7.79      -0.06      -0.44
      7.47      -0.09      -0.24
      7.00       0.19       0.10
      6.67       0.22       0.52
      6.67       0.85       0.55
      6.67       0.34       0.59
      6.55       0.89       0.66
      7.05       0.44       0.42
      7.25       0.11      -0.19
      6.97       0.28       0.21
      7.33       0.43       0.25
      7.46       0.89       0.20
      7.33       0.63      -0.21
      7.11       0.07       0.40
      7.44      -0.18       0.56
      7.62      -0.18       0.40
      7.95      -0.52       0.11
      8.41      -0.12      -0.13
      8.61       0.42      -0.51
      8.19       0.93      -0.72
      8.26       0.09      -0.82
      8.09       0.17      -0.24
      8.12       0.10      -0.01
      8.06      -0.38      -0.16
      7.69      -0.13       0.14
      7.62      -0.11      -0.17
      7.86       0.02       0.06
      7.54       0.21       0.48
      7.64       0.23      -0.05
      7.31       0.48       0.38
      7.21       0.52       0.31
      7.06       0.31       0.27
      7.46       0.21       0.08
      7.75       0.34      -0.15
      7.87       0.20      -0.35
      8.06      -0.28      -0.55
      8.09      -0.22      -0.45
      7.85       0.34      -0.34
      7.75       0.20      -0.33
      7.76       0.72      -0.45
      7.89       0.45       0.21
      8.01       0.73       0.15
      7.24       0.03       0.11
      7.35       0.20      -0.19
      7.06       0.31       0.04
      7.18       0.15      -0.18
      6.89      -0.12       0.16
      7.45       0.02       0.29
      7.29      -0.08       0.04
      7.38       0.60       0.19
      7.36       0.26      -0.22
      7.09       0.47       0.07
      7.05       0.27       0.35
      7.39       0.42       0.37
      7.51       0.28       0.33
      7.48       0.11       0.40
      8.19       0.09      -0.38
      7.47       0.69       0.21
      7.19       1.00       0.02
      7.10       0.79       0.06
      8.08      -0.70      -0.03
      8.21      -0.64      -0.33
      7.79      -0.73       0.14
      7.71      -0.23       0.00
      8.02      -0.08      -0.17
      8.11       0.34       0.22
      8.23       0.28       0.02
      8.66      -0.08      -0.47
      8.51       0.26      -0.36
      8.34       0.22      -0.29
      8.05       0.08      -0.08
      7.90      -0.09       0.02
      7.33      -0.26       0.28
      7.13      -0.10       0.43
      7.39       0.53       0.45
      7.50       0.52       0.02
      7.18      -0.08       0.09
      7.17      -0.21       0.40
      7.69      -0.08       0.37
      7.48       0.17       0.13
      7.83       0.28      -0.09
      8.09       0.05      -0.01
      7.54      -0.14      -0.24
      7.29       0.08       0.25
      7.20       0.17      -0.51
      7.55       0.05      -0.23
      7.49       0.37       0.32
      7.60       0.75       0.30
      7.91       0.34       0.19
      8.02       0.00      -0.21
      7.96       0.08      -0.09
      8.14      -0.09      -0.25
      7.58      -0.19      -0.12
      7.94      -0.33      -0.20
      7.56       0.02      -0.41
      7.39       0.18       0.17
      7.53       0.51      -0.19
      7.54       0.06      -0.30
      7.43       0.43      -0.13
      7.94      -0.06      -0.15
      7.80       0.18      -0.09
      8.00       0.20      -0.34
      7.89       0.02       0.31
      8.38      -0.04       0.10
      8.72       0.25      -0.19
      7.84       0.94       0.07
      8.23      -0.06       0.07
      8.33      -0.76      -0.17
      8.07      -0.87      -0.30
      7.90      -0.44       0.54
      7.70      -0.04       0.31
      8.17       0.12      -0.24
      8.09       0.35       0.17
      8.42      -0.14      -0.32
      7.82      -0.06      -0.20
      8.46       0.20       0.07
      8.35       0.23      -0.39
      7.88       0.03      -0.45
      8.26       0.54       0.02
      7.76       0.18      -0.26
      7.09       0.03       0.53
      6.80       0.23       0.43
      7.51       0.21       0.47
      7.57      -0.34       0.03
      7.05      -0.41      -0.09
      7.26      -0.56      -0.16
      7.13      -0.39      -0.09
      7.68      -0.06       0.16
      8.27       0.18       0.10
      7.86       0.15      -0.07
      7.58       0.05      -0.23
      7.56      -0.15      -0.41
      7.45       0.08      -0.37
      7.28       0.10       0.18
      7.46       0.18       0.22
      7.58      -0.08       0.09
      7.44      -0.47      -0.28
      7.78      -0.28      -0.37
      8.14       0.20      -0.13
      8.07       0.14      -0.28
      7.06      -0.48       0.21
      7.13      -0.37       0.37
      7.68       0.19       0.03
      7.50       0.25      -0.29
      7.38      -0.09       0.15
      7.28       0.07      -0.16
      7.92       0.32      -0.23
      8.21       0.07      -0.37
      8.75       0.24      -0.54
      8.68      -0.11       0.07
      8.63       0.28      -0.35
      8.52       0.49      -0.00
      8.39       0.21      -0.27
      8.36      -0.24       0.12
      8.89       0.03      -0.32
      7.37      -0.39       0.70
      7.63      -0.19       0.18
      7.68       0.25       0.16
      7.77      -0.14       0.03
      7.79      -0.18       0.30
      7.84       0.47       0.19
      7.86      -0.21       0.12
      7.83       0.31       0.19
      7.70       0.87       0.45
      7.71       0.28       0.21
      7.84       0.18       0.31
      7.43       0.38       0.21
      7.07      -0.02       0.23
      7.68       0.08       0.01
      7.69       0.10       0.14
      8.02      -0.35       0.24
      7.55      -0.26       0.04
      7.35      -0.62      -0.05
      7.09      -0.64      -0.42
      7.55      -0.73      -0.19
      7.76       0.09       0.38
      7.78       0.30       0.06
      7.63       0.43      -0.59
      7.73       0.28      -0.44
      7.17       0.06      -0.13
      7.10      -0.08       0.34
      6.92      -0.65      -0.02
      7.56       0.05      -0.08
      7.74      -0.05      -0.39
      7.80      -0.23      -0.18
      8.00       0.13       0.06
      7.84       0.64      -0.00
      6.98      -0.16       0.27
      7.65       0.15       0.07
      7.22       0.25      -0.07
      6.96      -0.06      -0.11
      7.66      -0.17      -0.10
      7.66      -0.18       0.06
      7.24       0.44       0.22
      6.92      -0.11       0.04
      7.68      -0.33      -0.43
      8.26       0.51      -0.27
      8.18       0.41      -0.28
      8.40       0.33      -0.62
      8.48       0.27      -0.63
      8.83       0.29      -0.04
      8.04       0.14      -0.28
      7.98       0.13      -0.41
      7.61       0.11       0.01
      8.11       0.03      -0.18
      7.67      -0.62      -0.05
      7.27      -0.27       0.36
      7.65       0.37       0.26
      5.02      -0.20       0.62
      4.76       0.24       0.35
      5.13       0.90       0.29
      5.35       1.01       0.18
      5.53       0.34       0.35
      7.57       0.34       0.27
      7.56       0.14       0.14
      7.16       0.02       0.39
      7.50       0.02       0.34
      7.61      -0.31      -0.18
      7.61      -0.28       0.40
      7.99      -0.60      -0.19
      7.54      -0.01      -0.31
      7.16      -0.26       0.69
      7.20       0.30       0.65
      7.18       0.58       0.05
      7.22       0.31      -0.12
      7.49       0.28      -0.32
      7.47       0.20      -0.25
      7.17       0.24       0.44
      6.65      -0.50      -0.08
      6.66      -0.41       0.11
      6.44      -0.25      -0.48
      6.80      -0.04      -0.07
      7.37       0.26      -0.38
      7.35       0.30      -0.10
      7.62       0.04      -0.36
      6.83       0.28       0.62
      7.67       0.04      -0.11
      8.03       0.07      -0.35
      7.51       0.42       0.04
      7.29       0.18       0.28
      7.43       0.52       0.33
      7.66      -0.42       0.27
      8.10      -0.61      -0.50
      6.96       0.23       0.32
      7.02       0.17       0.01
      7.81       0.20      -0.30
      7.36      -0.11      -0.06
      8.57       0.24      -0.42
      7.81       0.50      -0.33
      7.10       0.20      -0.05
      7.47       0.18       0.36
      7.33      -0.24       0.11
      7.31      -0.40      -0.12
      7.15       0.18       0.33
      6.81       0.03       0.39
      4.43       0.52       0.38
      2.99       0.60       0.94
      2.81       0.70       0.62
      3.32       0.46       0.60
      3.74       0.19       0.83
      7.85       0.25       0.42
      7.54       0.06       0.45
      7.53       0.27       0.62
      7.68      -0.05       0.16
      7.53      -0.10       0.06
      7.46      -0.23       0.37
      7.68      -0.10      -0.21
      7.63      -0.26      -0.49
      7.28       0.29       0.25
      6.67       0.33       0.30
      6.73       0.05       0.19
      7.14       0.21       0.02
      7.10       0.17      -0.02
      7.61       0.23       0.06
      7.11       0.41       0.29
      7.63       0.11      -0.32
      6.58      -0.07       0.46
      6.54      -0.69       0.20
      6.69      -0.50       0.09
      6.68      -0.60      -0.10
      7.10      -0.10       0.16
      6.44       0.43      -0.10
      6.95      -0.12       0.21
      7.24       0.07       0.42
      7.62       0.40      -0.28
      6.73       0.28       0.37
      6.76      -0.21       0.63
      7.90       0.10       0.30
      8.36      -0.38      -0.40
      8.30      -0.03      -0.96
      6.69      -0.00       0.53
      6.80       0.20       0.37
      6.68       0.30       0.02
      6.64       0.27       0.15
      6.48       0.34       0.03
      6.67       0.06       0.36
      6.79      -0.03       0.33
      6.82      -0.27       0.36
      6.81      -0.34       0.12
      6.72      -0.32       0.26
      7.01      -0.11       0.31
      6.92       0.07       0.62
      4.74       0.40       0.65
      4.30       0.41       0.73
      4.41       0.54       0.56
      4.26       0.04       0.68
      4.53       0.14       0.66
      7.61       0.11       0.39
      7.62       0.21       0.22
      7.74      -0.36       0.07
      7.38      -0.15       0.04
      7.87      -0.09      -0.15
      7.77      -0.34       0.14
      7.90       0.14      -0.35
      6.93       0.08      -0.39
      6.61       0.47       0.85
      6.69       0.20       0.54
      7.63      -0.43       0.18
      7.40      -0.27       0.03
      8.16      -0.15       0.04
      7.87       0.46      -0.12
      6.82       0.27      -0.20
      6.85      -0.06       0.45
      6.69       0.31       0.58
      7.13      -0.24       0.18
      7.72      -0.73      -0.32
      7.76       0.06      -1.00
      7.41      -0.42      -0.29
      7.33       0.75       0.06
      7.25       0.61      -0.57
      6.70       0.58       0.09
      7.79       0.38      -0.49
      7.78       0.31       0.12
      7.72       0.14      -0.30
      7.70       0.07       0.18
      7.19      -0.29       0.40
      7.22       0.43      -0.16
      7.30       0.22       0.39
      6.87       0.27       0.49
      7.09       0.37       0.26
      6.52       0.43       0.06
      6.65       0.01       0.29
      6.59      -0.45       0.62
      6.74      -0.66       0.10
      7.04      -0.60       0.07
      7.37      -0.60      -0.27
      7.61      -0.62      -0.40
      7.74      -0.42      -0.04
      7.42       0.02       0.16
      4.92       0.31       0.26
      3.74       0.06       0.59
      3.86      -0.08       0.68
      4.22       0.19       0.51
      4.25       0.27       0.41
      7.97       0.30      -0.43
      8.11       0.44      -0.56
      8.00       0.34       0.04
      7.51      -0.28       0.24
      7.43      -0.48       0.22
      8.33      -0.15       0.56
      7.30       0.14       0.04
      7.22       0.58      -0.11
      7.56       0.43       0.10
      7.59      -0.46      -0.33
      7.71       0.15      -0.14
      6.92      -0.10       0.52
      6.93      -0.42       0.62
      7.11       0.04       0.30
      7.43       0.62       0.40
      7.48       0.45      -0.08
      7.23       0.24      -0.34
      7.45      -0.21      -0.24
      7.50      -0.92       0.12
      6.96      -0.39      -0.16
      5.76      -0.64       0.97
      6.69      -0.22       0.24
      6.98       0.33      -0.03
      7.62       0.21      -0.33
      7.44      -0.11      -0.28
      7.78       0.40      -0.46
      7.23      -0.09      -0.32
      7.34      -0.31       0.26
      7.47       0.27       0.71
      6.89       0.53       0.03
      6.71      -0.20       0.17
      6.48       0.01       0.08
      6.75       0.03       0.18
      6.63      -0.10       0.01
      6.80      -0.37      -0.32
      7.29      -0.27      -0.67
      7.05      -0.73      -0.66
      6.88      -0.36      -0.02
      6.95      -0.22       0.42
      7.26      -0.47       0.08
      7.11      -0.07      -0.09
      7.33       0.08      -0.01
      4.56      -0.29       0.44
      3.84      -0.03       0.49
      4.29      -0.02       0.25
      4.33       0.11       0.44
      4.82       0.23      -0.06
      8.20      -0.27      -0.66
      8.26      -0.14      -0.50
      8.50       0.21      -0.55
      8.36      -0.04      -0.22
      7.34       0.05      -0.09
      7.60       0.53       0.30
      7.43       0.25       0.33
      8.08       0.17      -0.02
      8.56       0.16      -0.36
      7.96      -0.20      -0.35
      7.43      -0.24      -0.18
      7.55       0.20       0.22
      6.74       0.28       0.62
      6.45       0.27       0.39
      6.86       0.24       0.46
      7.72       0.48      -0.02
      7.73      -0.41      -0.57
      7.67      -0.43      -0.98
      7.05       0.07      -0.34
      7.11       0.44      -0.26
      6.92      -0.21      -0.57
      6.45      -0.35       0.15
      6.68       0.21       0.57
      7.03       0.37       0.27
      6.93      -0.20       0.24
      6.87       0.13       0.16
      6.88       0.10       0.38
      6.79      -0.05       0.15
      7.27       0.42       0.29
      7.28       0.63       0.02
      6.57      -0.78       1.14
      7.16      -0.50       0.62
      6.63      -0.73       0.54
      7.26      -0.65       0.97
      6.74      -0.57       0.32
      7.16      -0.52      -0.82
      6.62       0.21       0.09
      8.09      -0.60      -0.14
      7.37      -0.19      -0.01
      7.52      -0.47       0.21
      7.05      -0.06       0.18
      7.57      -0.53       0.21
      7.58      -0.50       0.40
      7.71      -0.58       0.14
      7.66      -0.44      -0.53
      7.47      -0.38      -0.51
      7.74      -0.15      -0.65
      7.69      -0.47       0.19
      7.77      -0.13      -0.29
      6.46      -0.17       0.33
      6.80       0.25       0.40
      6.69      -0.57      -0.16
      7.41      -0.28      -0.26
      7.72       0.00      -0.21
      7.70      -0.42      -0.64
      7.73       0.32      -0.37
      6.75       0.11       0.08
      8.20      -0.00      -0.25
      7.43       1.03       0.43
      7.42      -0.24       0.03
      7.54      -0.31      -0.08
      7.87      -0.31       0.25
      7.99      -0.08       0.37
      8.10      -0.45       0.12
      8.05      -0.31      -0.63
      8.52       0.13      -1.19
      7.70       0.71      -0.01
      7.18       0.40       0.07
      7.89       0.42      -0.43
      7.39       0.32       0.01
      6.41       0.50       0.52
      6.65       0.58       0.64
      7.10       0.19       0.39
      6.74       0.01       0.15
      6.48       0.17      -0.14
      6.50      -0.05       0.16
      6.90       0.14       0.52
      7.77      -0.28       0.32
      7.99      -1.07       0.58
      6.94      -0.43       0.48
      6.45      -0.29       0.28
      7.01      -0.23      -0.63
      7.01      -0.05      -0.87
      7.68      -0.66      -1.12
      8.06      -0.38      -0.67
      7.98      -0.62      -0.27
      8.03      -0.58       0.02
      7.63      -0.08       0.25
      7.82      -0.82       0.08
      7.73      -0.04      -0.10
      6.90      -0.77       0.34
      7.18      -0.87       0.16
      7.83      -0.34      -0.28
      7.28      -0.37       0.13
      7.15      -0.11       0.26
      6.75       0.14       0.24
      6.21      -0.26       0.28
      6.35      -0.34       0.60
      6.73      -0.13       0.72
      6.91      -0.27       0.17
      6.38       0.27       0.02
      6.70       0.42       0.39
      6.56       0.57       0.05
      7.45      -0.21      -0.27
      7.70      -0.15       0.22
      8.01       0.00       0.64
      8.05      -0.25      -0.17
      6.60      -0.45       0.23
      6.57      -0.32       0.19
      6.68      -0.77       0.72
      7.09      -0.37       0.36
      6.62      -0.28       0.55
      6.85       0.36       0.47
      7.01       0.10       0.25
      8.28       0.60      -0.36
      8.06       0.47      -0.66
      8.00       0.65       0.11
      7.66       0.60       0.03
      7.62       0.35      -0.47
      7.33       0.55      -0.17
      7.37       0.36      -0.30
      7.07       0.61      -0.28
      7.21      -0.32      -0.19
      6.85       0.14       0.08
      8.35      -0.16      -0.45
      8.15      -0.15      -0.23
      7.88       0.07       0.08
      8.15      -0.31       0.24
      8.14       0.04      -0.40
      8.07      -0.23      -0.68
      8.20      -0.22      -0.94
      8.32      -0.07      -0.87
      7.97       0.32      -1.03
      8.57       0.09      -0.23
      8.28      -0.22      -0.77
      8.44      -0.37      -0.28
      7.43       0.63       0.24
      7.26      -0.16      -0.23
      7.63      -0.83      -0.13
      7.70      -1.01       0.00
      7.25      -0.17       0.17
      7.17      -0.08      -0.06
      7.27       0.34       0.34
      6.70       0.29       0.21
      6.84      -0.21      -0.13
      7.10      -0.07       0.16
      7.70      -0.61       0.36
      7.07      -0.47       0.51
      7.02       0.17       0.27
      7.49      -0.60       0.66
      8.19      -0.90      -0.09
      8.12      -0.74      -0.29
      8.22      -0.41      -0.25
      8.61      -0.02      -0.19
      7.61       0.11      -0.80
      7.30      -0.13      -0.71
      7.51      -0.25      -0.19
      7.27      -0.74       0.90
      6.78       0.14       0.83
      7.01      -0.47       0.34
      6.90      -0.32       0.65
      7.63      -0.10       0.06
      7.29       0.15      -0.12
      7.02       0.48       0.10
      7.09       0.49       0.45
      7.28       0.43      -0.00
      7.11       0.57      -0.01
      7.56       0.66      -0.38
      7.61       0.55      -0.32
      7.73      -0.00      -0.15
      7.75       0.01      -0.06
      8.02       0.27       0.22
      7.99      -0.13       0.29
      8.28      -0.05       0.07
      7.41      -0.47       0.49
      7.45      -0.08       0.21
      7.62      -0.50      -1.00
      7.93      -0.04       0.13
      7.52      -0.18       0.12
      7.60      -0.22      -0.54
      8.07      -0.37      -0.59
      8.24      -0.33      -0.82
      8.19       0.31      -0.59
      8.65       0.16       0.08
      8.29      -0.50       0.15
      7.77      -0.57      -0.47
      7.65      -0.19      -0.29
      7.40      -0.04       0.09
      7.26      -0.50       0.54
      7.52       0.28       0.08
      7.23       0.18       0.28
      7.11      -0.39       0.86
      7.59      -0.70       0.48
      7.93      -1.33      -0.13
      7.83      -0.43       0.30
      8.11      -0.19       0.04
      7.97      -0.45      -0.18
      7.66      -0.63       0.12
      7.86      -0.81       0.08
      8.09      -0.65       0.14
      8.29      -0.23      -0.55
      8.21       0.31      -0.71
      8.38       0.20      -0.61
      8.34      -0.36      -0.76
      7.29       0.12       0.38
      7.71      -0.04       0.49
      7.36      -0.35       0.31
      7.20      -0.38      -0.02
      7.27      -0.25       0.22
      7.46       0.20       0.52
      7.49       0.30       0.53
      7.32      -0.19       0.33
      7.72       0.15       0.34
      7.87       0.28      -0.36
      8.21       0.08      -0.34
      8.02       0.09      -0.21
      8.12       0.47       0.13
      7.83      -0.09       0.03
      8.63      -0.20      -0.06
      8.29      -0.31       0.08
      8.24      -0.27       0.20
      8.02      -0.64       0.11
      7.56      -0.23       0.27
      7.68       0.25      -0.19
      7.76       0.16       0.03