# vtk DataFile Version 3.0
Low resolution, disturbed wind of YZ Slice at time = 54 seconds.
ASCII
DATASET STRUCTURED_POINTS
DIMENSIONS     1    26    12
ORIGIN    1252.00     635.00      15.00
SPACING      30.00      30.00      30.00
POINT_DATA             312
VECTORS DisYZ float
      5.56       0.39       0.25
      6.38       0.67      -0.03
      6.10      -0.13      -0.02
      4.73      -0.82       0.27
      5.13      -0.64       0.34
      5.94      -0.26       0.08
      6.41      -0.16      -0.10
      4.91       0.98       0.23
      4.61      -0.17       0.29
      4.07       0.48       0.23
      4.37      -0.23       0.42
      6.39      -0.67       0.01
      5.58      -0.32       0.31
      5.81       0.56       0.09
      5.70       0.78      -0.25
      4.78       0.13       0.22
      4.41      -0.28       0.76
      4.67       0.11       0.22
      6.06       0.39       0.05
      6.12       0.42       0.07
      4.44       0.16       0.40
      5.13      -0.15       0.24
      6.84       0.12       0.17
      6.92       0.14      -0.63
      6.31      -0.12       0.43
      7.59       0.04      -0.02
      7.05       0.38       0.33
      6.97      -0.47      -0.77
      6.34       0.58       0.01
      6.61       0.06       0.03
      4.81       0.03       0.14
      6.74       0.35      -0.28
      7.00       0.30      -0.51
      7.81       0.26      -0.68
      7.45       0.15       0.08
      6.58       0.17      -0.18
      6.05       0.65      -0.17
      3.79       0.52       0.72
      4.53      -0.02      -0.10
      3.90      -0.44       0.82
      6.24      -0.15       0.35
      6.68      -1.04      -0.03
      5.75      -0.79       0.54
      7.64      -0.73      -0.05
      7.54      -0.04      -0.12
      6.81       0.10       0.43
      8.31      -0.01      -0.25
      6.89      -0.20       0.44
      7.38      -0.22      -0.03
      6.93      -0.41       0.12
      5.84      -0.11       0.18
      7.36       0.34      -0.03
      8.62       0.41       0.12
      8.04       0.24      -0.20
      7.64       0.16       0.27
      7.85       0.43       0.07
      6.25      -0.04       0.55
      7.49       0.39      -0.44
      6.91       0.48      -0.24
      8.05      -0.04      -0.52
      8.68      -0.31      -0.30
      7.98       0.15       0.23
      5.23       0.27       0.10
      2.50       0.73       1.11
      3.70      -0.18       0.62
      3.92      -0.18       0.29
      5.15      -0.77       0.43
      7.67      -0.70      -0.07
      7.86      -0.48       0.12
      7.74      -0.12       0.01
      8.14      -0.12      -0.36
      7.52       0.14       0.26
      8.39      -0.10       0.32
      8.41       0.03       0.08
      8.07       0.55       0.26
      8.25       0.27       0.52
      8.34      -0.24       0.77
      9.10       0.41       0.19
      8.10      -0.39       0.45
      7.83      -0.07      -0.13
      7.59      -0.48      -0.34
      7.96      -0.16      -0.12
      6.72      -0.09       0.51
      7.87       0.17      -0.06
      7.80       0.69      -0.09
      8.37       0.66      -0.40
      8.62       0.32      -0.18
      7.79      -0.10       0.16
      5.49      -0.27      -0.06
      3.73      -0.14       0.82
      4.23      -0.08       0.72
      3.94       0.02       0.50
      5.20       0.30       0.49
      7.40      -0.50       0.09
      8.16      -0.99       0.44
      9.16      -0.51      -0.87
      8.68      -0.08      -0.16
      7.85       0.34       0.49
      8.02       0.30       0.74
      8.90       0.12      -0.21
      8.87       0.31       0.31
      7.55       0.67       0.75
      6.89       0.39       0.73
      9.59       0.82       0.14
      8.23      -0.05       0.23
      8.02      -0.37      -0.28
      8.40       0.01      -0.33
      8.64       0.05      -0.04
      7.36       0.23       0.38
      7.90       0.21       0.05
      7.87       0.53       0.26
      8.61       0.14      -0.22
      8.88       0.13      -0.07
      8.50      -0.05      -0.11
      6.70       0.26       0.34
      5.22      -0.07      -0.12
      4.10      -0.51       0.81
      4.58      -0.37       0.51
      6.59      -0.55      -0.05
      7.45      -0.03       0.37
      8.41       0.33      -0.15
      9.54       0.07      -0.83
      9.32      -0.17      -0.55
      8.38      -0.14       0.10
      8.26       0.61       0.53
      9.42       0.30       0.03
     10.03       0.29      -0.03
      9.32       0.13       0.17
      9.58       0.54       0.59
      9.61       0.25      -0.04
      8.91      -0.08       0.68
      8.71       0.32      -0.14
      8.53       0.23      -0.12
      8.65      -0.23       0.14
      8.02      -0.71       0.52
      8.32      -0.23       0.00
      8.61      -0.12       0.20
      8.69       0.02      -0.54
      8.82       0.24       0.14
      8.81       0.18      -0.04
      8.05      -0.26      -0.00
      7.09      -0.32      -0.02
      6.13      -0.24       0.72
      6.59      -0.35       0.46
      7.98      -0.34       0.16
      8.74      -0.48       0.05
      9.54       0.02      -0.39
      9.13       0.10      -0.31
      9.83      -0.46      -0.41
      9.85      -0.54      -0.42
      8.86      -0.17       0.14
      9.64       0.66      -0.21
      9.66       0.32       0.25
      9.94       0.32       0.32
      9.69       0.32       0.27
      9.08      -0.06       0.29
      8.56      -0.78       0.26
      8.40      -0.61      -0.70
      8.50      -0.67       0.21
      8.71      -0.82       0.15
      8.36      -0.32      -0.12
      8.78      -0.11      -0.44
      9.34       0.12      -0.62
      9.09      -0.23      -0.14
      8.96       0.07      -0.07
      8.61      -0.32       0.03
      8.90      -0.24       0.04
      8.71      -0.40       0.03
      8.52      -0.76       0.04
      8.58      -0.41       0.21
      8.49      -0.50       0.10
      9.71      -0.16      -0.06
      9.46      -0.22      -0.01
      9.41       0.15      -0.07
      9.10       0.15      -0.36
      9.94      -0.75      -0.32
     10.11      -0.78      -0.64
     10.06      -0.26      -0.86
      9.26      -0.03      -0.02
      9.29      -0.03       0.09
      9.24      -0.32       0.20
      9.11      -0.52       0.23
      8.44      -0.89       0.06
      9.34      -0.65      -0.64
      8.77      -0.12      -0.40
      8.52      -0.08      -0.18
      9.81      -0.43      -0.44
      9.07      -0.29      -0.35
      9.53      -0.13      -0.36
      9.51      -0.16      -0.15
      8.97      -0.31      -0.05
      9.00      -0.18      -0.27
      9.24      -0.30       0.02
      8.94      -0.81       0.32
      9.00      -1.32       0.35
      9.07      -0.89       0.28
      9.05      -0.50       0.24
      9.75      -0.44      -0.47
      9.39      -0.73      -0.26
      9.26      -0.68       0.23
      8.81       0.00       0.30
     10.03      -0.45      -0.51
     10.15      -0.33      -0.51
     10.44      -0.51      -0.35
      9.57      -0.74      -0.56
      9.09      -0.50       0.32
      8.85      -0.81       0.22
      9.30      -0.75       0.54
      9.08      -0.77       0.14
      9.52      -0.25      -0.79
      9.66      -0.20      -0.64
      9.13      -0.03      -0.19
      9.60       0.08      -0.72
      9.26      -0.36      -0.40
      8.92      -0.20      -0.08
      9.11      -0.36      -0.15
      9.13      -0.41       0.02
      8.75      -0.70       0.09
      9.02      -0.50      -0.14
      8.98      -0.71      -0.03
      9.69      -0.93      -0.07
      9.56      -1.55      -0.25
      9.38      -1.54      -0.34
      9.49      -1.11      -0.27
      9.14      -1.20      -0.00
      9.63      -1.14      -0.43
      9.60      -0.68       0.06
     10.13      -1.07      -0.37
     10.45      -0.53      -0.51
     10.04      -0.74      -0.08
      9.51      -0.75      -0.25
      8.92      -0.70      -0.09
      8.70      -0.66       0.21
      8.66      -0.70       0.20
      9.74       0.08      -0.70
      9.55      -0.11      -0.82
      9.47       0.21      -0.39
      9.38       0.00      -0.50
      9.44      -0.40      -0.47
      9.46      -0.36      -0.20
      9.06      -0.15      -0.10
      8.84      -0.23       0.03
      9.30      -0.11      -0.09
      8.91      -0.25       0.33
      8.72      -0.57       0.19
      9.13      -0.65       0.04
      9.53      -0.69       0.25
      9.89      -0.98       0.36
      9.48      -0.62      -0.40
      9.72      -1.10      -0.08
      9.89      -1.17      -0.03
     10.05      -1.00      -0.44
      9.57      -0.75       0.25
     10.04      -0.78      -0.59
     11.04      -0.77      -0.60
     10.39      -0.90      -0.60
      8.80      -1.13      -0.09
      9.03      -0.97      -0.23
      8.71      -0.98       0.15
      9.17      -0.87       0.36
     10.43      -0.25      -0.67
     10.25       0.03      -0.54
     10.35      -0.09      -0.59
      9.60       0.03      -0.40
      9.29      -0.27      -0.26
      9.89      -0.30      -0.20
      9.29      -0.31      -0.05
      9.38      -0.52       0.26
      9.42      -0.19      -0.17
      9.97      -0.38       0.22
      9.07      -0.43       0.35
      8.86      -0.29       0.79
      8.83      -0.39       0.44
      9.12      -0.54       0.37
      9.77      -1.54      -0.18
      9.59      -1.36      -0.15
      9.97      -1.10      -0.49
     10.22      -1.10      -0.39
     10.25      -1.16      -0.13
     10.03      -0.86      -0.27
     10.75      -0.64      -0.45
     10.64      -1.02      -0.51
      8.97      -1.05      -0.25
      8.85      -1.11       0.18
      9.26      -0.83       0.63
      9.34      -0.67       0.64
     10.63      -0.17      -0.78
     10.30      -0.19      -0.61
      9.87      -0.36      -0.46
      9.80      -0.07      -0.38
      9.87      -0.06      -0.19
      9.62      -0.25      -0.07
      9.60      -0.23       0.20
      9.08      -0.22       0.05
      9.52      -0.08      -0.04
      9.29      -0.33       0.01
      9.43      -0.24       0.57
      8.90      -0.53       0.79
      8.81      -0.35       0.42
      8.80      -0.05       0.34
      9.11      -0.25      -0.03
      9.32      -0.64      -0.10
      9.19      -0.85      -0.63
     10.24      -1.04      -0.38
     10.22      -1.16      -0.04
     10.40      -1.10      -0.08
     10.41      -0.82      -0.55
     10.45      -0.95      -0.33
      9.31      -1.01       0.27
      9.13      -1.10       0.34
      9.47      -0.97       0.63
      9.90      -0.58       0.42
