# vtk DataFile Version 3.0
Low resolution, disturbed wind of YZ Slice at time = 12 seconds.
ASCII
DATASET STRUCTURED_POINTS
DIMENSIONS     1    26    12
ORIGIN    1630.00     635.00      15.00
SPACING      30.00      30.00      30.00
POINT_DATA             312
VECTORS DisYZ float
      5.22       0.14       0.05
      3.35      -0.13       0.86
      6.87      -0.22      -0.37
      6.87      -0.18      -0.10
      4.96       0.06       0.16
      6.47      -0.07       0.01
      5.87       0.41       0.24
      3.88       0.44       0.58
      5.95       0.08      -0.75
      3.68       0.06       0.17
      4.33       0.42       0.39
      4.35       1.07       0.02
      5.39       0.56      -0.43
      5.00      -0.16       0.10
      4.42      -0.88      -0.83
      4.45       0.03       0.05
      4.62       0.61       0.30
      6.16      -0.17       0.02
      5.91       0.40       0.17
      5.84       0.10      -0.17
      6.46      -0.11       0.29
      7.47       0.86      -0.23
      7.01       1.24       0.16
      5.22       0.64       0.13
      4.84       0.42       0.51
      6.97       0.80      -0.04
      6.26      -0.12       0.25
      6.37      -0.42       0.90
      6.75      -0.10      -0.58
      6.97       0.29      -0.31
      7.45      -0.26      -0.40
      6.38       0.27       0.25
      6.15       0.52      -0.12
      6.26       0.49      -0.39
      7.56       0.69      -0.30
      6.08       1.40       0.20
      6.88       0.13      -0.17
      7.07       0.80       0.19
      6.79      -0.40      -0.59
      5.05      -0.43       0.66
      7.56      -0.48      -0.64
      7.27       1.13      -0.37
      6.19       0.90       0.61
      5.89       0.62       0.21
      6.77       0.32       0.59
      7.10       0.40       0.21
      8.06       0.51       0.28
      9.32       0.58      -0.17
      7.06      -0.43      -0.01
      7.40       0.04       0.08
      8.02      -0.48      -0.04
      7.16      -0.07       0.34
      6.87      -0.37       0.38
      7.35       0.04       0.60
      6.92      -0.29       0.34
      7.63       0.29       0.50
      8.42      -0.02      -0.00
      6.86      -0.23      -0.04
      6.94      -0.08       0.17
      7.77      -0.01      -0.39
      7.75      -0.34      -0.50
      7.69      -0.12      -0.18
      6.58       0.00      -0.52
      6.19      -0.73       0.22
      6.83      -0.20      -0.15
      7.38      -0.89      -0.71
      7.47      -0.29      -0.91
      8.02      -0.30      -0.83
      6.73       0.14       0.42
      6.84      -0.31       0.59
      7.33      -0.35       0.42
      7.70       0.57       0.28
      8.01       0.44      -0.04
      8.18       0.14      -0.15
      7.72       0.33       0.40
      7.79       0.14       0.18
      8.65      -0.22       0.31
      8.78      -0.90       0.35
      6.89      -0.69       0.52
      7.68      -0.37       1.00
      7.85       0.25      -0.04
      7.58       0.09       0.56
      8.33       0.20       0.16
      8.21       0.25      -0.14
      8.26       0.36      -0.38
      8.53       0.05      -0.20
      7.30      -0.31       0.12
      8.04      -0.45      -0.30
      7.36       0.05       0.23
      7.02      -0.52       0.14
      8.28      -0.40      -0.14
      8.10      -0.24      -0.20
      9.00      -0.11      -0.61
      8.87      -0.14      -0.54
      7.40      -0.03       0.41
      6.86      -0.27       0.44
      7.61      -0.04       0.21
      8.18       0.00      -0.16
      8.74      -0.07      -0.48
      7.79       0.10       0.21
      7.58      -0.13       0.57
      8.46       0.08       0.69
      8.46      -0.42       0.23
      8.71      -0.21      -0.10
      7.66      -0.23       0.44
      8.35       0.62       0.60
      9.31       0.32       0.05
      8.03       0.37       0.35
      8.91       0.61      -0.46
      8.31       0.21       0.22
      8.10       0.19       0.20
      8.50       0.16       0.23
      8.61       0.13       0.33
      8.68      -0.19      -0.23
      8.69      -0.17      -0.16
      7.72       0.08       0.13
      7.82      -0.20       0.29
      8.27      -0.78      -0.10
      9.19      -0.80      -0.71
      8.83      -0.69      -0.51
      8.31      -0.59      -0.32
      7.61      -0.40       0.84
      9.01      -0.14       0.21
      8.96      -0.05      -0.45
      8.53      -0.30      -0.17
      8.22       0.12       0.33
      8.50      -0.01       0.62
      8.52       0.01       0.66
      8.73      -0.27       0.42
      8.59      -0.29      -0.15
      8.89       0.15       0.66
      8.43      -0.03       0.50
      8.26       0.31       0.17
      8.54       0.19       0.25
      8.52       0.24       0.23
      8.30       0.21       0.24
      8.48       0.35       0.32
      8.91      -0.04       0.02
      8.72      -0.16       0.52
      9.08      -0.33      -0.18
      8.91      -0.50      -0.15
      8.40      -0.60      -0.11
      8.36      -1.03       0.54
      8.79      -0.63      -0.45
      8.62      -0.63      -0.40
      9.16      -1.23      -0.16
      9.02      -0.81      -0.26
      8.42      -0.06       0.59
      9.27      -0.32       0.31
      9.22      -0.39      -0.06
      8.76      -0.92      -0.27
      9.17      -0.90      -0.46
      8.94      -0.32       0.23
      8.82       0.17       0.43
      8.80       0.12       0.66
      9.19      -0.76       0.28
      8.96      -0.17       0.62
      8.85      -0.53       0.19
      8.45       0.17       0.23
      8.39       0.38       0.36
      8.76       0.25       0.25
      8.99       0.31       0.23
      8.76       0.53       0.25
      8.56       0.83       0.60
      8.57      -0.09       0.13
      9.40      -0.47       0.17
      8.87      -0.48      -0.25
      8.48      -0.56       0.12
      8.73      -0.71      -0.14
      8.92      -0.63      -0.26
      9.43      -0.57      -0.29
      9.29      -0.35      -0.25
      9.44      -0.41      -0.54
      9.10      -0.58       0.22
      9.43      -0.42       0.17
      9.42      -0.66      -0.24
      9.75      -0.67      -0.11
      9.57      -0.79      -0.32
      8.64      -0.76      -0.06
      9.16      -0.43       0.41
      9.23      -0.62       0.61
      9.15      -0.50      -0.06
      8.96      -0.93       0.25
      9.30      -1.16       0.02
      8.73      -0.53      -0.18
      9.27      -0.73       0.32
      9.14      -0.42       0.16
      8.91       0.18       0.29
      8.82       0.08       0.39
      8.54       0.60       0.88
      8.51       0.77       0.60
      8.97       0.58       0.17
      8.78      -0.20      -0.29
      8.70      -0.41       0.20
      9.39      -0.33      -0.37
      8.90      -0.22      -0.21
      9.69      -0.21      -0.41
      9.87      -0.38      -0.45
      9.66      -0.74      -0.30
      9.16      -0.60      -0.27
      9.06      -0.48      -0.16
      9.55      -0.41      -0.05
      9.65      -0.70      -0.06
      9.60      -1.04      -0.33
      9.04      -0.58      -0.01
      8.99      -1.16       0.60
      8.81      -0.88       0.62
      8.89      -0.85      -0.04
      9.07      -0.13       0.73
      9.21      -0.70       0.42
      9.46      -0.68       0.23
      9.40      -0.50       0.07
      8.76      -0.39       0.32
      8.90      -0.13       0.33
      8.26       0.39       0.51
      8.08       0.55       0.75
      8.46       0.47       0.59
      8.41       0.58       0.43
      8.95      -0.35       0.24
      9.47      -0.42       0.04
      9.14      -0.44      -0.14
      9.77       0.02      -0.47
     10.17      -0.18      -0.30
      9.63      -0.44      -0.23
      9.63      -0.68      -0.54
     10.03      -0.52      -0.13
      9.30      -0.66      -0.25
      9.40      -0.48      -0.13
      9.30      -0.53       0.26
      9.75      -0.74      -0.39
      9.36      -0.80       0.20
      9.29      -0.69       0.60
      9.40      -0.45       0.31
     10.07      -0.17      -0.72
      8.85      -0.34       0.99
      9.11      -0.63       0.40
      9.03      -0.89       0.37
      9.59      -0.85       0.09
      9.19      -0.82       0.25
      9.22      -0.57       0.27
      9.63       0.13       0.33
      9.01       0.06       0.46
      8.72       0.07       0.73
      8.84      -0.31       0.69
      9.64       0.21       0.49
      9.71       0.05      -0.07
      9.70      -0.31      -0.06
     10.37      -0.96      -0.28
      9.87      -0.68      -0.08
      9.68      -1.01      -0.08
      9.44      -0.69      -0.20
      9.36      -0.64      -0.27
      9.46      -0.74       0.12
      9.35      -0.58       0.08
      9.28      -0.56       0.31
      9.91      -0.58      -0.00
      9.68      -0.62       0.17
      9.53      -0.11       0.28
      9.59       0.05       0.04
     10.00      -0.04       0.00
      8.83      -0.43       1.11
      9.01      -0.52       0.72
      9.15       0.14       0.35
      9.44      -0.26       0.10
      9.27      -0.59       0.54
      9.89      -0.53       0.44
      9.99      -0.23       0.04
      9.62      -0.37       0.27
      9.03      -0.79       0.45
      9.85      -0.42       0.12
      9.42      -0.16       0.37
      9.80      -0.09       0.05
      9.97      -0.35      -0.27
     10.34      -0.87      -0.37
      9.78      -1.20      -0.01
      9.87      -0.61       0.06
      9.55      -0.84      -0.46
      9.86      -0.89      -0.41
      9.42      -0.92       0.13
      9.69      -0.85       0.04
      9.45      -0.71       0.30
      9.70      -0.62       0.01
      9.59      -0.52      -0.18
      9.54      -0.65       0.10
     10.47      -0.42      -0.54
      9.75      -1.12      -0.41
      8.85      -0.55       0.96
      9.53      -0.54       0.44
      9.83      -0.70       0.48
      9.70      -0.84       0.29
     10.07      -0.89       0.43
     10.17      -0.56       0.10
      9.20      -0.42       0.21
      9.68      -0.63       0.44
      9.21      -0.84       0.67
      9.09      -0.79       0.02
      9.75      -0.52      -0.01
      9.71      -0.60       0.03
     10.24      -0.69      -0.28
      9.83      -1.00      -0.05
      9.78      -0.94      -0.05
     10.20      -0.82      -0.13
     10.23      -0.86      -0.25
     10.13      -0.78      -0.29
      9.80      -0.69       0.10
      9.56      -0.86      -0.10
      9.81      -0.98      -0.21
     10.00      -0.85       0.13
      9.96      -0.81       0.03
     10.14      -0.85      -0.32
     10.43      -0.67      -0.60
     10.72      -0.77      -0.10
