# vtk DataFile Version 3.0
Low resolution, disturbed wind of XY Slice at time = 42 seconds.
ASCII
DATASET STRUCTURED_POINTS
DIMENSIONS    47    26     1
ORIGIN     635.00     635.00      85.00
SPACING      30.00      30.00      30.00
POINT_DATA            1222
VECTORS DisXY float
      8.46       0.26      -0.10
      8.73       0.41       0.25
      8.88       0.08       0.84
      8.37      -0.35       0.31
      8.36      -0.14      -0.10
      8.46      -0.67      -0.05
      8.81      -0.13       0.24
      9.06       0.33       0.14
      8.89       0.66      -0.02
      8.95       0.28       0.35
      8.49       0.50       0.78
      9.20       0.78       0.26
      8.76       0.34      -0.03
      8.12       0.14       0.65
      7.63       0.33       0.80
      7.89       0.63       0.78
      8.58       0.65       0.52
      8.51       0.11       0.46
      8.63       0.06      -0.16
      8.64       0.04       0.12
      8.85      -0.06      -0.49
      8.77       0.61       0.22
      8.89       0.35       0.01
      9.20      -0.17       0.24
      8.52      -0.06      -0.38
      9.03       0.77       0.45
      8.77       0.71       0.15
      9.27       1.31      -0.56
      7.66       0.59       0.38
      7.75       0.50       0.64
      8.32       0.67      -0.12
      8.58       0.35      -0.47
      8.27       0.11      -0.30
      8.49       0.32       0.39
      8.43      -0.71      -0.42
      8.74       0.59       0.21
      7.80       0.23       0.74
      7.63      -0.14      -0.23
      7.65       0.13       0.35
      7.05       0.07       0.27
      6.90       0.16       0.47
      6.79      -0.89       0.41
      6.82       0.14       0.34
      6.76      -0.09      -0.21
      6.80      -0.25       0.14
      6.51       0.08       0.40
      6.49      -0.20       0.19
      7.77      -0.15       0.22
      7.28      -0.63       0.13
      7.65      -0.50       0.18
      7.63      -0.11       0.30
      7.53      -0.46       0.09
      7.85      -1.09       0.04
      7.89      -0.80      -0.40
      8.48       0.41      -0.16
      7.70       0.68       0.64
      7.59       0.36       0.93
      7.54       0.12       0.73
      7.50       0.33       0.22
      7.75       0.61       0.36
      8.05       0.36       0.36
      8.12       0.57       0.58
      7.78       0.43       0.22
      7.91       0.43      -0.03
      7.73       0.03      -0.10
      8.23       0.15      -0.12
      7.52      -0.32      -0.17
      7.46      -0.02       0.63
      7.31       0.64       0.53
      7.98       0.12      -0.06
      8.76      -0.04      -0.10
      8.65       0.20      -0.15
      8.56       0.08       0.14
      8.70       0.92      -0.10
      8.85       1.21      -0.16
      8.84       0.94       0.10
      8.95       0.46      -0.08
      8.24       0.73      -0.22
      8.32       0.40       0.29
      8.42       0.22      -0.04
      8.19       0.07       0.70
      8.15      -0.78      -0.37
      8.26       0.68       0.30
      7.88       1.01       0.25
      8.92      -0.30       0.10
      7.99       0.90       0.08
      7.53       0.60      -0.20
      8.18       0.17       0.16
      7.64      -0.50       0.16
      7.57       0.06      -0.21
      7.27      -0.45       0.02
      7.45      -0.38      -0.21
      7.76       0.18      -0.15
      7.75       0.34      -0.43
      7.53      -0.27       0.31
      7.93      -0.80      -0.36
      7.97      -0.88      -0.24
      8.04      -0.41      -0.11
      8.12      -0.23      -0.52
      7.73      -0.94      -0.17
      7.90      -0.49       0.29
      7.58       0.62       0.15
      8.08       1.08       0.23
      7.99       0.43       0.82
      7.38       0.07       0.16
      7.27       0.29      -0.03
      7.29       0.29       0.02
      7.45       0.47       0.43
      7.44       0.11       0.34
      7.56       0.17       0.42
      7.45       0.19       0.48
      7.65      -0.20       0.11
      7.87       0.24      -0.17
      8.21       0.25       0.13
      7.74       0.24       0.30
      8.50      -0.00       0.12
      8.75       0.30      -0.13
      7.99      -0.21       0.12
      8.01       0.13       0.27
      8.47       0.44       0.28
      8.46       0.48      -0.58
      8.68       0.80      -0.23
      8.72       0.88      -0.46
      8.54       0.46      -0.21
      8.01       0.82       0.06
      8.34       1.10       0.35
      8.87       0.53       0.87
      8.49      -0.04      -0.05
      7.64      -0.57       0.19
      7.81       0.26       0.34
      8.10       0.77       0.04
      7.59       0.23       0.40
      8.26       0.36       0.34
      8.13       0.88      -0.21
      7.33       0.06       0.41
      7.16      -0.17       0.19
      7.40      -0.50       0.35
      7.29      -0.77       0.58
      7.30      -0.28       0.20
      7.53       0.15      -0.31
      7.51       0.24      -0.55
      6.83      -0.62       0.63
      7.19      -0.56       0.22
      7.22      -0.40      -0.26
      7.11      -0.99      -0.02
      6.93      -0.59      -0.40
      6.81      -0.49       0.40
      6.94      -0.26       0.81
      7.05      -0.40       0.91
      7.15      -0.23       0.56
      7.08       0.39      -0.10
      7.18       0.13       0.16
      7.07       0.31       0.77
      7.12      -0.10       0.41
      7.33       0.25       0.39
      7.53       0.10       0.50
      7.52       0.33      -0.36
      7.72       0.14      -0.74
      7.98      -0.14       0.34
      7.79       0.49      -0.44
      8.06       0.47      -0.22
      7.12      -0.22      -0.13
      7.52      -0.23       0.22
      7.36       0.01       0.30
      7.47      -0.31       0.57
      7.89      -0.15       0.52
      7.24       0.22       0.12
      7.18       0.51      -0.25
      7.52      -0.20      -0.02
      7.75       0.57       0.67
      8.42       0.52       0.87
      7.87       0.71       0.73
      7.44       0.57       0.84
      7.84       0.24       0.13
      7.87       0.48      -0.08
      7.67       0.33      -0.31
      7.72      -0.00      -0.16
      7.67       1.07      -0.12
      7.42       0.18       0.45
      7.03       0.17       0.13
      7.40       0.44       0.45
      7.58       0.55       0.11
      7.47       0.15       0.13
      7.22      -0.22       0.45
      7.40      -0.42       0.66
      7.88      -0.14      -0.00
      7.79      -0.25      -0.47
      7.52      -0.16      -0.77
      7.29      -1.48      -0.35
      8.27      -0.70       0.01
      7.72      -0.48       0.40
      8.74      -0.10      -0.64
      8.57      -0.17      -0.44
      7.00       0.32       0.60
      6.32       0.18       0.22
      6.18      -0.30       0.47
      6.15       0.39       0.40
      5.97       0.60       0.75
      6.67       0.38       0.38
      6.88      -0.24      -0.26
      6.58      -0.33       0.17
      6.44       0.04       0.35
      7.02       0.14       0.18
      6.88       0.05       0.55
      7.68       0.68       0.22
      6.74       0.16       0.24
      6.27       0.19       0.70
      6.31       0.05       0.32
      6.68       0.43       0.84
      6.59      -0.42       0.90
      6.50      -0.58      -0.08
      6.86      -0.16       0.35
      6.87       0.16       0.21
      6.69      -0.05       0.62
      7.26       0.20       0.03
      7.67       0.22      -0.16
      6.89       0.43       0.63
      7.11       0.53       0.20
      7.07       0.33       0.15
      7.32       0.67       0.31
      7.24       0.86      -0.15
      7.21      -0.05       0.23
      7.67       0.42       0.09
      7.45       0.36       0.03
      7.53       0.81      -0.16
      7.82       0.48       0.49
      7.44       0.18       0.25
      7.71       0.05       0.56
      7.75       0.12       0.20
      7.88      -0.13      -0.09
      8.27      -0.24      -0.29
      7.55       0.12       0.68
      6.72      -0.12       0.73
      7.07      -0.12      -0.04
      7.07      -0.66       0.05
      7.02      -1.05       0.10
      7.26      -1.06       0.04
      7.20      -0.46       0.88
      7.02      -0.19       0.22
      7.02      -0.01       0.35
      6.97       0.17       0.31
      7.22       0.20       0.05
      7.44       0.76      -0.10
      7.20       0.56      -0.38
      6.77       0.26       0.24
      6.88       0.07       0.16
      7.11      -0.10      -0.03
      7.50       0.30      -0.15
      7.33       0.15      -0.25
      7.85      -0.12      -0.27
      8.10      -0.26      -0.59
      7.76      -0.01      -0.30
      7.77       0.31      -0.67
      7.10       0.40      -0.22
      6.89       0.48       0.16
      6.91       0.14       0.09
      6.85      -0.14       0.32
      6.51      -0.69       0.57
      6.88      -0.07       0.83
      7.13       0.01       0.31
      6.87       0.35       0.31
      6.92       0.19       0.45
      6.84       0.12       0.74
      6.30       0.09       0.92
      6.33      -0.10       0.75
      6.69       0.12       0.40
      7.11       0.20       0.35
      7.60       0.34       0.14
      7.67       0.04      -0.14
      7.81      -0.03      -0.26
      7.78      -0.13      -0.03
      7.72       0.84      -0.05
      7.84       0.77      -0.08
      7.88       0.38      -0.07
      7.85      -0.02      -0.12
      7.56      -0.02       0.07
      7.31       0.09      -0.36
      7.12       0.04       0.16
      7.19      -0.02       0.20
      7.75      -0.23       0.09
      7.56      -0.37      -0.29
      7.36       0.08      -0.33
      8.12      -1.02      -0.09
      7.25      -0.14       0.06
      6.98      -0.60       0.71
      6.41      -0.37       0.40
      6.71       0.06       0.45
      7.16       0.12       0.26
      7.19      -0.17       0.06
      7.27       0.50      -0.07
      7.64       0.70      -0.35
      7.59       0.37      -0.26
      7.31       0.28      -0.25
      6.96      -0.43       0.43
      7.33      -0.64       0.11
      7.58      -0.05       0.59
      7.90      -0.02       0.09
      8.07      -0.15      -0.13
      8.35      -0.19      -0.67
      8.03       1.01      -0.36
      7.42       0.22      -0.16
      8.21      -0.15      -0.34
      8.02      -0.20      -0.06
      8.39      -0.54      -0.59
      7.79      -0.50       0.22
      7.86      -0.11      -0.19
      7.57       0.06       0.14
      7.14       0.66       0.20
      7.17       0.37      -0.33
      7.24       0.22       0.26
      7.05       0.14       0.15
      6.65       0.17       0.46
      6.76       0.43       0.57
      7.84       0.12       0.06
      7.71       0.15      -0.45
      7.93       0.04      -0.77
      8.11      -0.31      -0.13
      8.01       0.08      -0.35
      7.62       0.36      -0.16
      7.94       0.65      -0.24
      7.65       0.36       0.15
      7.48       0.50       0.17
      7.50       0.34       0.08
      7.23       0.37       0.03
      7.17       0.35       0.01
      7.13      -0.07      -0.10
      7.25      -0.14       0.15
      7.48      -0.09       0.21
      7.18       0.04       0.17
      8.42      -0.18      -0.29
      8.08      -0.27      -0.18
      7.81      -0.77       0.11
      8.03      -0.75       0.16
      7.65      -0.03       0.07
      7.50       0.13       0.44
      7.41       0.51       0.05
      7.55       0.32      -0.36
      8.36       0.17      -0.28
      7.79       0.74      -0.44
      7.26       0.97       0.16
      7.93      -0.21       0.06
      8.28      -1.09       0.19
      7.87      -0.34      -0.04
      8.00      -0.15       0.13
      8.06       0.05      -0.50
      8.08       0.21       0.00
      7.92       0.14      -0.42
      8.71       0.13      -0.48
      8.88      -0.30      -0.24
      7.98       0.06      -0.17
      8.06      -0.27      -0.15
      7.63      -0.05       0.22
      7.48      -0.38       0.25
      7.00      -0.08       0.45
      7.81       0.77       0.51
      7.82       0.67       0.08
      7.20       0.16      -0.10
      7.50      -0.34       0.31
      7.76      -0.10       0.24
      7.56       0.15       0.08
      7.61       0.24       0.15
      7.83       0.12      -0.01
      7.31      -0.03       0.04
      7.13       0.11       0.01
      7.42      -0.16      -0.31
      7.70       0.21      -0.25
      7.76       0.12      -0.28
      7.55       1.10       0.50
      7.73       0.67      -0.19
      8.02       0.05      -0.13
      7.83       0.16      -0.21
      8.07      -0.15      -0.13
      7.90      -0.36      -0.44
      7.71      -0.92      -0.47
      7.87      -0.04      -0.54
      7.41       0.12       0.30
      8.32       0.09      -0.15
      8.57      -0.01       0.05
      8.14      -0.67       0.63
      8.38      -0.92       0.03
      8.24      -1.12      -0.27
      7.60       0.38      -0.17
      7.41       0.56       0.62
      8.41      -0.05      -0.11
      7.82       0.15      -0.45
      6.93       0.74       0.18
      8.18      -0.40       0.11
      8.11      -0.18       0.24
      7.50      -0.82       0.16
      7.57      -0.18       0.64
      7.65      -0.03       0.49
      7.93       0.06       0.21
      8.44       0.02      -0.11
      8.96      -0.25      -0.54
      8.35      -0.08      -0.13
      8.19      -0.14      -0.13
      8.66      -0.06      -0.07
      7.54       0.15      -0.48
      7.72       0.39       0.07
      7.91       0.28      -0.15
      7.32       0.11       0.43
      7.31       0.05       0.56
      7.65       0.33       0.17
      7.68      -0.20      -0.07
      7.35      -0.46       0.27
      6.69      -0.60       0.10
      7.05      -0.43       0.14
      7.75      -0.45      -0.19
      8.00       0.22      -0.13
      7.71      -0.15      -0.31
      7.43       0.09      -0.07
      7.58      -0.40      -0.41
      7.55       0.19      -0.23
      7.55       0.29       0.07
      7.94       0.26       0.06
      7.44       0.23       0.08
      7.41      -0.45      -0.10
      7.65      -0.19      -0.24
      8.10      -0.10      -0.23
      8.23       0.26      -0.31
      7.72      -0.33       0.19
      7.72       0.13      -0.14
      7.89      -0.05      -0.09
      8.03      -0.68      -0.50
      8.18      -0.60      -0.67
      8.37      -0.81      -0.88
      8.94      -1.09      -0.97
      8.94      -0.72      -0.50
      8.64      -0.04      -0.51
      9.17       0.18      -0.32
      8.99       0.19      -0.27
      8.22       0.35       0.10
      7.85       0.72      -0.25
      7.75      -0.05       0.06
      7.76      -0.18      -0.22
      7.92      -0.16       0.62
      7.49      -0.07       0.12
      7.81       0.23       0.10
      7.88      -0.11      -0.07
      8.32      -0.41       0.25
      8.34       0.23      -0.04
      7.77       0.03       0.26
      7.98       0.04      -0.08
      8.05       0.65       0.12
      7.28       0.27      -0.03
      7.64       0.20       0.12
      7.67       0.47       0.26
      7.59       0.03       0.58
      7.43       0.05       0.03
      7.62       0.05      -0.09
      7.70      -0.46       0.18
      7.67      -0.09       0.09
      7.95      -0.58      -0.55
      7.49      -0.93      -0.02
      7.83      -0.75      -0.03
      8.32       0.37      -0.04
      7.33      -0.15       0.14
      7.71       0.39      -0.37
      7.20       0.04      -0.67
      7.24       0.30       0.13
      6.82       0.01       0.44
      7.40      -0.40      -0.22
      7.67       0.37      -0.44
      8.20       0.00      -0.50
      8.10      -0.29       0.04
      7.81       0.05       0.13
      7.71       0.00       0.58
      6.95      -0.36       0.61
      7.48       0.31      -0.15
      7.26       0.16      -0.27
      7.15      -1.39       0.25
      7.32      -0.51       0.29
      7.22      -0.57       0.48
      6.97      -0.87       0.00
      7.42      -0.56      -0.13
      8.04       0.07       0.42
      7.97       0.63      -0.16
      8.00       0.28      -0.24
      8.14       0.53      -0.30
      8.38       0.32      -0.24
      8.37       0.11      -0.62
      7.81      -0.12      -0.37
      4.99       0.08       0.36
      3.84       0.15       0.24
      4.33       0.36       0.31
      4.41      -0.41       0.75
      4.70      -0.29       0.75
      4.82      -0.13       0.34
      5.14      -0.24      -0.11
      5.78       0.48       0.43
      6.26       0.61       0.70
      5.96       0.46       0.35
      7.43       0.17       0.12
      7.80       0.59       0.15
      7.73       0.36       0.17
      7.64      -0.02       0.61
      7.46      -0.11       0.25
      7.64      -0.17       0.50
      7.32      -0.40       0.07
      7.51      -0.23      -0.41
      7.71       0.16      -0.43
      7.05       0.02       0.98
      7.44       0.34      -0.10
      6.99       0.37       0.19
      7.17       0.21      -0.21
      6.85       0.03       0.22
      7.27       0.27       0.15
      6.93      -0.01      -0.10
      6.53      -0.30       0.42
      6.28      -0.48      -0.11
      6.66      -0.10      -0.30
      6.77      -0.22       0.11
      7.50       0.45      -0.32
      7.57       0.68      -0.23
      6.51       0.12       0.57
      7.34       0.11       0.21
      7.60       0.37      -0.38
      6.49      -0.07       0.34
      7.00      -0.38      -0.10
      7.37      -0.46      -0.11
      6.77      -0.51       0.23
      6.47       0.14       1.30
      7.44       0.43       1.30
      6.95       0.18      -0.10
      7.12      -0.01      -0.50
      7.64       0.17      -0.51
      7.42       0.55      -0.27
      7.65       0.76       0.03
      8.13       0.56      -0.21
      4.89       0.08       0.14
      3.43       0.08       0.79
      3.33      -0.46       0.49
      3.02      -0.06       0.66
      2.99      -0.19       0.87
      3.00       0.06       0.74
      2.89       0.65       0.90
      3.16       0.76       0.70
      3.34       0.73       0.57
      4.03       0.67       0.50
      7.72       0.05       0.13
      7.62       0.23       0.36
      7.49       0.29       0.49
      7.31       0.09       0.31
      7.93      -0.35       0.34
      7.84      -0.19       0.29
      7.89      -0.56       0.01
      7.63      -0.10      -0.19
      7.22      -0.31      -0.34
      7.54       0.29      -0.26
      6.87       0.26       0.66
      7.12       0.17       0.14
      6.89      -0.10       0.21
      7.00       0.12      -0.02
      7.21       0.33       0.26
      7.14       0.18       0.06
      7.03       0.24      -0.10
      6.84      -0.23       0.45
      6.77      -0.57      -0.24
      6.73      -0.15      -0.04
      6.66      -0.44      -0.01
      7.10       0.42       0.47
      6.83       0.24       0.48
      7.32      -0.26      -0.22
      7.22      -0.06       0.09
      6.91      -0.43       0.41
      6.85       0.19       0.49
      7.26      -0.51       0.48
      6.63      -0.42       0.69
      7.50       0.42       0.28
      6.89      -0.13       0.38
      6.95       0.28       0.15
      6.94       0.18       0.37
      6.97       0.19       0.27
      6.94       0.25       0.17
      6.69       0.29      -0.12
      6.31      -0.18       0.18
      4.33      -0.25       0.89
      3.81      -0.40       0.50
      3.72      -0.24       0.24
      3.95      -0.29       0.17
      4.06      -0.11       0.68
      3.78      -0.25       0.59
      3.89       0.05       0.97
      4.20       0.22       0.54
      3.89       0.09       0.65
      4.35      -0.04       0.51
      7.75       0.16       0.09
      7.44       0.38       0.47
      7.74       0.27       0.50
      7.44      -0.26       0.29
      7.58      -0.23       0.21
      7.95      -0.19       0.08
      8.30      -0.13       0.04
      7.74      -0.23      -0.32
      6.85      -0.02       0.49
      6.88       0.15       0.38
      6.90       0.05       0.33
      7.58      -0.26      -0.08
      7.36      -0.00      -0.03
      7.87      -0.11      -0.24
      7.43       0.61      -0.24
      7.17       0.23      -0.45
      7.07       0.57       0.18
      6.72       0.05       0.15
      6.94      -1.37      -0.20
      7.68      -1.49       0.02
      7.94      -0.01      -0.65
      6.99       0.54       0.21
      7.13       0.09      -0.10
      7.49      -0.02       0.02
      7.24       0.31      -0.40
      6.81      -0.46       0.03
      6.50      -0.46      -0.07
      7.22      -0.77      -0.35
      7.03      -0.68       0.02
      7.03      -0.35       0.09
      7.07      -0.43       0.11
      7.18       0.03       0.50
      6.98       0.09       0.15
      6.51       0.28       0.20
      6.53       0.47       0.15
      6.59      -0.42       0.75
      6.69      -0.11       0.66
      4.84      -0.76      -0.05
      3.75      -0.74       0.13
      3.83      -0.49      -0.01
      3.63      -0.38       0.10
      3.77      -0.41      -0.03
      3.80       0.04       0.47
      3.79       0.06       0.35
      3.83      -0.13       0.58
      4.08       0.22       0.40
      4.51      -0.04       0.33
      7.88       0.09      -0.03
      7.91       0.39      -0.43
      7.67       0.40      -0.23
      7.26       0.06       0.30
      6.36      -0.17       1.09
      7.45      -0.09       0.98
      7.35      -0.50       0.46
      7.16       0.32      -0.29
      7.23       1.21       0.32
      6.93       0.15       0.15
      7.53      -0.56       0.19
      7.07      -0.01      -0.05
      6.47      -0.75       0.36
      7.57       0.37       0.62
      7.29       0.52       0.25
      7.96       0.80      -0.01
      7.60       0.38      -0.37
      8.03       0.16      -0.36
      7.89      -0.69      -0.84
      6.92      -0.76      -0.18
      6.07      -0.88       0.66
      6.44       0.13       0.40
      7.28       0.27       0.60
      7.06       0.30      -0.24
      7.72      -0.32      -0.57
      7.14      -0.07       0.59
      6.92      -0.52       0.09
      6.61      -0.41       0.46
      6.45      -0.62       0.49
      6.07      -0.46       0.11
      5.88      -0.64       0.39
      6.47      -0.39       0.32
      6.50      -0.09       0.26
      6.99      -0.07       0.13
      6.62      -0.14       0.26
      6.62      -0.03       0.11
      6.67      -0.01      -0.45
      4.01      -0.51      -0.14
      2.69      -0.56       0.40
      3.53      -0.18       0.54
      4.29      -0.36       0.31
      4.27      -0.18       0.42
      4.48      -0.24       0.43
      4.79      -0.35       0.64
      5.28      -0.02       0.41
      5.52      -0.04       0.04
      5.35       0.16       0.17
      7.63       0.35      -0.55
      7.51      -0.39      -0.16
      7.85      -0.24      -0.34
      8.58       0.38      -0.27
      8.25      -0.24      -0.17
      7.67       0.36       0.18
      7.57       0.29       0.13
      7.60      -0.25       0.33
      7.91       0.02      -0.16
      7.96       0.00      -0.55
      7.50      -0.07       0.26
      7.21      -0.84      -0.70
      6.73       0.06       0.40
      6.56       0.07       0.39
      6.90       0.19       0.91
      7.11       0.13       0.51
      7.58       0.67       0.11
      7.79      -0.47      -0.37
      8.06      -0.37      -0.52
      7.35      -0.02      -0.54
      7.41      -0.00      -0.07
      7.23      -0.33      -0.21
      7.37       0.19       0.37
      6.92      -0.10      -0.11
      7.30      -0.30      -0.09
      7.18       0.24       0.07
      6.93       0.28      -0.45
      6.95      -0.44      -0.33
      7.00      -0.41       0.34
      7.25      -0.64       0.72
      7.18      -0.70       0.27
      7.77      -1.05       0.80
      7.59      -1.50       0.29
      8.02      -0.53       0.21
      6.89      -0.69       0.41
      7.03      -0.30       0.03
      6.79       0.47      -0.60
      7.00       0.51       0.15
      7.15      -0.69       0.11
      7.53      -0.47      -0.09
      7.53      -0.39       0.23
      7.18      -0.32       0.50
      7.22      -0.68       0.22
      7.59      -0.58       0.18
      7.36      -0.53      -0.38
      6.93       0.07      -0.42
      6.82      -0.33      -0.61
      7.97      -0.15      -0.35
      8.01      -0.47      -0.15
      7.06      -0.21      -0.10
      6.42      -0.10      -0.01
      7.04       0.17       0.27
      7.00      -0.34       0.02
      7.77       0.11      -0.03
      8.14      -0.35      -0.08
      8.08       0.16      -0.62
      8.07      -0.18      -0.58
      7.23      -0.46       0.25
      7.89       0.33      -0.50
      6.96       0.96       0.57
      6.87      -0.39       0.43
      7.48      -0.46       0.23
      7.05      -0.53       0.94
      7.73      -0.24       0.42
      7.98      -0.32       0.20
      7.89      -0.60       0.06
      7.69       0.61      -0.48
      8.25       0.99      -1.05
      7.41       0.06       0.19
      6.76       0.26      -0.09
      7.40       0.34       0.48
      6.91       0.53       0.83
      7.31       0.30      -0.12
      7.51       0.11      -0.41
      7.64       0.08      -0.73
      7.89      -0.73       0.06
      8.32      -0.32       0.02
      8.41      -0.47      -0.03
      8.15      -0.47      -0.17
      7.72      -0.69       0.12
      6.94      -0.28       0.52
      7.31      -0.20      -0.57
      7.11       0.38      -0.90
      7.13       0.69      -0.89
      7.38      -0.30      -1.42
      7.62      -0.00      -1.42
      7.43      -0.54      -0.49
      7.84      -0.67       0.25
      7.34      -0.64       0.42
      7.86      -0.69       0.00
      7.80      -0.22      -0.15
      7.63      -0.74       0.50
      7.09      -0.67      -0.05
      7.67      -0.33      -0.24
      7.56      -0.26      -0.32
      6.89      -0.56       0.20
      6.82       0.31       0.20
      6.52      -0.37       0.50
      6.48      -0.21       0.61
      6.65       0.05       0.63
      6.62       0.06       0.13
      6.99      -0.24       0.14
      6.61       0.22       0.57
      6.51       0.55       0.06
      7.45      -0.51       0.13
      7.57       0.19       0.56
      8.38       0.11       0.33
      7.95       0.05       0.02
      6.95      -0.13       0.39
      6.99      -0.34      -0.40
      7.35      -0.99       0.67
      7.39      -0.75       0.58
      6.82      -0.31       0.44
      6.54      -0.23       0.20
      7.27       0.52      -0.05
      7.44       0.75       0.24
      7.30       0.43       0.09
      7.57       0.89      -0.27
      6.94       0.67      -0.14
      7.69       0.23      -0.50
      7.53      -0.33      -0.47
      7.88      -0.09      -0.22
      7.89       0.16      -0.54
      8.37       0.04      -0.42
      8.92      -0.21      -0.04
      8.96      -0.24       0.06
      8.44      -0.15      -0.49
      7.75       0.20       0.19
      8.00      -0.30       0.32
      7.96       0.38      -0.30
      7.74      -0.15      -0.34
      8.07      -0.51      -0.52
      8.04      -0.25      -0.44
      8.15       0.02      -0.62
      8.42       0.09      -0.76
      8.63      -0.76      -0.65
      8.01      -0.26      -0.50
      8.21      -0.18       0.38
      7.76       0.23       0.09
      8.21      -0.63      -0.48
      7.73      -0.65      -0.18
      7.63      -0.64      -0.07
      7.57       0.19      -0.03
      6.85       0.44       0.20
      7.00       0.10       0.26
      6.56       0.01       0.60
      7.18      -0.27       0.71
      7.47      -0.91       0.36
      7.14       0.25       0.06
      7.19       0.15      -0.36
      7.42      -0.55       0.33
      7.64      -0.87      -0.24
      7.68      -0.80      -0.23
      8.16      -1.11      -0.02
      8.59      -0.39      -0.03
      8.28      -0.27      -0.11
      7.87      -0.32      -0.46
      6.99      -0.37       0.39
      7.18      -0.23       0.89
      6.91      -0.39       0.79
      6.92      -0.43       0.28
      6.81      -0.34       0.64
      7.50       0.04      -0.21
      7.68       0.09      -0.14
      7.86       0.54       0.60
      7.62       0.69       0.34
      8.00       0.28      -0.73
      7.77      -0.56      -0.68
      8.21      -0.23      -0.46
      8.34      -0.52       0.06
      8.18      -0.16       0.08
      8.68      -0.70       0.21
      7.95       0.06       0.25
      7.97      -0.14       0.02
      8.50      -0.14      -0.13
      8.65      -0.20       0.43
      7.50      -0.31       0.37
      7.76      -0.07      -0.27
      7.16      -0.15       0.49
      7.00      -0.56       0.17
      7.88       0.17      -0.36
      7.57      -0.47      -0.26
      7.49      -0.52      -0.34
      8.47       0.13      -0.64
      8.69       0.18      -0.08
      8.63      -0.23       0.34
      7.86      -0.42      -0.23
      7.56       0.09      -0.29
      7.32       0.16       0.43
      7.14       0.12       0.04
      7.36       0.44       0.11
      6.92       0.01       0.61
      7.21      -0.81       0.54
      7.24      -0.99       0.42
      7.43      -0.97      -0.09
      7.47      -0.16       0.31
      7.92      -0.03      -0.10
      7.63      -0.24       0.18
      7.76      -0.66      -0.07
      7.56      -0.85      -0.01
      7.72      -1.14       0.25
      7.95      -0.51      -0.28
      8.43      -0.13      -1.14
      8.02      -0.03      -0.71
      8.68       0.24      -0.67
      8.32      -0.16      -0.11
      7.56      -0.03       0.67
      7.61      -0.51       0.32
      7.27      -0.53      -0.09
      7.49       0.04       0.03
      7.27       0.30       0.15
      7.05       0.89       0.51
      7.57      -0.10      -0.05
      8.49       0.30      -0.25
      8.59      -0.05      -0.87
      8.62       0.04      -0.75
      8.51      -0.11      -0.49
      8.75      -0.48      -0.43
      8.54      -0.43      -0.23
      8.81      -0.26      -0.00