# vtk DataFile Version 3.0
Low resolution, disturbed wind of XY Slice at time = 21 seconds.
ASCII
DATASET STRUCTURED_POINTS
DIMENSIONS    47    26     1
ORIGIN     635.00     635.00      85.00
SPACING      30.00      30.00      30.00
POINT_DATA            1222
VECTORS DisXY float
      8.76      -0.37      -0.15
      8.98       0.34       0.24
      9.07       0.53       0.05
      8.90       0.70       0.28
      8.93       0.62       0.62
      9.19       0.78       0.33
      9.23       0.87       0.40
      8.08       0.18       0.37
      8.45       0.52       0.84
      8.44       0.99       0.56
      8.31       0.49       0.64
      8.60       0.28       0.62
      8.58       0.03       0.26
      8.85       0.24      -0.21
      8.88       0.08      -0.31
      9.13       0.25      -0.22
      9.21       0.37       0.23
      9.02      -0.24      -0.20
      8.60      -0.14      -0.03
      8.76       0.41      -0.48
      9.67       1.03       0.02
      8.97       1.53      -0.29
      8.51       1.24       0.29
      8.26       0.16       0.39
      8.16       0.56      -0.10
      8.51       0.44      -0.49
      8.38       0.12      -0.19
      8.29       0.06      -0.05
      8.49      -0.27       0.32
      8.79      -0.36      -0.24
      8.50       0.67       0.13
      7.45       0.22       0.64
      7.47      -0.02      -0.26
      7.79       0.27       0.09
      7.07      -0.02       0.63
      6.77      -0.41       0.45
      6.65      -0.50       0.46
      6.87      -0.30       0.54
      6.72       0.50       0.31
      6.43      -0.13       0.09
      6.93       0.21       0.36
      6.96       0.38       0.50
      6.56      -0.28       0.20
      7.03       0.04       0.40
      7.55       0.50       0.48
      8.07       0.48       0.16
      8.52       0.69      -0.07
      8.08      -0.72       0.53
      7.99      -0.35      -0.20
      8.21       0.96       0.07
      7.99       0.66       0.28
      7.82       0.31       1.01
      7.80       0.46       0.48
      7.94       0.46       0.08
      8.09       0.42       0.15
      8.04       0.44       0.39
      7.67       0.30       0.27
      7.74       0.36       0.19
      7.81       0.19      -0.23
      8.22       0.14       0.07
      8.12       0.04      -0.02
      7.71       0.22      -0.01
      6.91       0.06       0.72
      7.45       0.41       0.58
      8.42      -0.24      -0.20
      8.91       0.17      -0.20
      8.75       0.43      -0.01
      8.80       0.39      -0.37
      9.28       0.97      -0.43
      9.17       0.78      -0.15
      8.72       0.52       0.02
      8.57       0.50      -0.33
      8.35       0.72      -0.10
      8.63       0.57      -0.10
      8.20      -0.05       0.36
      8.24      -0.14       0.33
      8.08      -0.21       0.08
      8.24       0.86       0.29
      8.35       0.84      -0.25
      8.63      -0.25       0.05
      7.91       0.96       0.04
      8.09       0.47      -0.46
      7.98       0.15       0.52
      7.48      -0.53       0.63
      7.31      -0.29      -0.15
      7.24       0.10      -0.23
      7.20      -0.59      -0.02
      7.67       0.31      -0.06
      7.65       0.42       0.16
      7.54      -0.22       0.16
      6.89      -0.07       0.97
      6.81       0.46       0.78
      6.91       0.38       0.22
      7.19       0.72      -0.14
      7.73      -0.90      -0.46
      7.64      -0.38       0.09
      7.37       0.86       0.68
      7.83       0.79       1.04
      7.99       0.60       0.50
      7.27       0.43       0.05
      7.02       0.16       0.09
      7.35       0.15       0.27
      7.37      -0.11       0.22
      7.21      -0.01       0.50
      7.34      -0.03       0.24
      7.47       0.26       0.40
      8.05       0.18      -0.02
      8.47       0.32      -0.11
      8.06       0.29       0.22
      7.96       0.09       0.18
      8.71       0.04      -0.20
      8.36       0.24      -0.06
      7.54      -0.28       0.18
      7.98       0.37       0.19
      8.36       0.38      -0.01
      8.52       0.62      -0.53
      8.39       0.55      -0.16
      8.54       0.86      -0.49
      7.84       0.52       0.21
      8.37       0.52       0.37
      9.10       0.44       0.79
      8.43       0.27       0.31
      7.82      -0.23      -0.15
      7.36      -0.12       0.00
      7.55       0.34       0.71
      8.09       0.70       0.04
      7.50       0.24       0.16
      7.63       0.45       0.28
      7.90       0.96      -0.12
      7.34       0.01       0.32
      6.98      -0.32       0.19
      6.93      -0.44       0.34
      7.00      -0.85       0.53
      7.41      -0.44       0.13
      7.56       0.05      -0.26
      8.40      -0.00      -0.94
      8.09       0.18      -0.09
      7.81       0.56      -0.02
      7.54       0.29       0.17
      7.67       0.39      -0.31
      7.76       0.74      -0.04
      7.13       0.05      -0.13
      6.39      -0.09       0.82
      6.88       0.20       0.86
      7.43       0.35       0.57
      7.37       0.33       0.27
      6.95       0.16      -0.46
      6.94       0.01       0.72
      7.01      -0.09       0.50
      7.22      -0.12       0.22
      7.47       0.19       0.39
      7.89       0.21      -0.19
      8.00       0.13      -0.38
      7.77       0.43       0.24
      7.81       0.19      -0.31
      7.92       0.38      -0.67
      7.36      -0.21       0.09
      7.36      -0.23       0.03
      7.70       0.08       0.32
      7.18      -0.15       0.40
      7.56      -0.01       0.53
      7.33       0.07       0.40
      7.38       0.33      -0.33
      7.56       0.12       0.14
      7.53       0.63       0.64
      7.19       0.74       0.94
      7.22       0.63       0.64
      7.41       0.67      -0.04
      7.87       0.43       0.11
      7.98       0.15      -0.12
      7.76       0.30      -0.43
      7.42       0.19      -0.15
      7.25       1.01       0.16
      7.48       0.45       0.76
      7.15       0.14       0.29
      7.17       0.32       0.39
      7.63       0.28       0.58
      7.67       0.37      -0.02
      7.24      -0.32       0.41
      7.10      -0.43       0.59
      7.58      -0.28       0.02
      7.99      -0.14      -0.62
      7.95      -0.17      -0.61
      8.41      -0.16      -0.49
      7.85       0.80       0.18
      7.81       0.58      -0.31
      7.60       0.78       0.37
      7.57      -0.11      -0.02
      7.36      -0.12      -0.09
      6.88       0.51       0.13
      7.35       0.48       0.04
      6.36       0.34       0.82
      6.27       0.26       0.58
      6.92       0.47       0.17
      7.26       0.31      -0.32
      6.60      -0.52       0.11
      6.32      -0.21       0.18
      6.66       0.35       0.38
      7.14       0.01       0.45
      6.95       0.41       0.56
      7.48       0.63      -0.08
      6.47       0.20       0.26
      5.95       0.29       0.50
      6.26      -0.00       0.44
      6.40      -0.34       0.69
      6.63      -0.92       0.37
      6.82      -0.25      -0.15
      7.22       0.33       0.06
      7.13       0.30       0.56
      7.01       0.25       0.38
      7.71       0.38      -0.13
      7.16       0.49       0.74
      7.11       0.60       0.47
      7.34       0.42      -0.18
      6.87       0.59       0.27
      7.53       0.49      -0.01
      7.29       0.09      -0.12
      7.58       0.12       0.24
      7.42       0.77       0.18
      7.58       0.68      -0.07
      7.44       0.91       0.20
      7.63       0.11       0.18
      7.44       0.31      -0.03
      8.38       0.17       0.31
      7.82      -0.01      -0.51
      8.24      -0.25      -0.02
      7.79       0.07       0.40
      7.10       0.20       0.99
      7.23       0.30       0.37
      7.25      -0.52      -0.04
      6.98      -0.29       0.11
      7.46       0.38      -0.69
      7.27       0.51      -0.31
      7.52       0.36       0.47
      6.58       0.74       0.51
      6.95      -0.05       0.22
      7.23       0.08       0.22
      7.29       0.30      -0.02
      7.47       0.94       0.17
      7.14       0.41       0.08
      6.71       0.16       0.26
      7.22       0.27      -0.08
      7.43       0.01      -0.29
      7.42       0.24      -0.38
      7.74       0.07      -0.22
      8.08      -0.24      -0.38
      7.26       0.23      -0.19
      6.89       0.41      -0.14
      6.35       0.29       0.25
      6.50       0.24       0.35
      6.88       0.10       0.11
      7.13       0.02       0.29
      6.92      -0.45       0.34
      6.74      -0.29       0.83
      7.01       0.10       0.37
      7.00       0.36       0.18
      6.85       0.64       0.38
      6.74       0.34       0.68
      6.66       0.42       0.79
      6.88       0.10       0.67
      6.97      -0.01       0.54
      7.26       0.08       0.27
      7.77       0.07       0.08
      7.59      -0.06      -0.13
      7.64      -0.23      -0.17
      7.75       0.17      -0.11
      7.61       0.96      -0.02
      7.95       0.85      -0.01
      7.91       0.27      -0.14
      8.07       0.06      -0.18
      7.56      -0.07       0.06
      7.13      -0.01      -0.31
      7.13       0.18      -0.02
      7.06       0.10       0.14
      7.51      -0.09      -0.03
      7.79      -0.10      -0.47
      7.23       0.04      -0.26
      6.91       0.06       0.24
      6.69       0.56       0.51
      6.61       0.61       0.45
      6.62       0.56       0.74
      6.53       0.93       0.61
      7.14      -0.17       0.21
      7.21       0.27      -0.06
      6.98       0.14       0.26
      7.64       0.71      -0.08
      7.32       0.77       0.25
      7.21       0.54      -0.16
      7.14      -0.05       0.44
      7.45      -0.16       0.66
      7.57      -0.19       0.43
      7.97      -0.46       0.17
      8.41       0.02      -0.09
      8.59       0.34      -0.66
      8.32       0.94      -0.43
      8.09       0.04      -0.82
      8.00      -0.03      -0.24
      8.25      -0.12       0.04
      7.96      -0.35      -0.12
      7.79      -0.16      -0.05
      7.69      -0.06      -0.13
      7.82       0.11       0.27
      7.41       0.33       0.20
      7.45       0.22      -0.14
      7.10       0.56       0.37
      7.22       0.30       0.29
      7.10       0.27       0.36
      7.60       0.28       0.02
      7.78       0.31      -0.28
      7.81       0.24      -0.43
      8.08      -0.36      -0.59
      8.21      -0.00      -0.54
      7.75       0.43      -0.09
      7.82       0.28      -0.36
      7.76       0.47      -0.28
      7.81       0.54       0.49
      7.54       0.50       0.03
      7.38       0.12       0.14
      7.28       0.18      -0.19
      7.07       0.28       0.00
      7.30       0.06      -0.05
      7.08       0.09       0.35
      7.49       0.11       0.14
      7.22       0.01       0.12
      7.14       0.38       0.19
      7.30       0.39      -0.12
      7.10       0.53       0.11
      7.06       0.26       0.38
      7.50       0.36       0.45
      7.56      -0.02       0.25
      7.61       0.08       0.20
      8.37       0.05      -0.41
      7.73       0.93       0.16
      7.12       0.97       0.12
      7.06       0.36       0.72
      8.13      -0.69      -0.12
      8.29      -0.96      -0.35
      7.85      -0.48       0.13
      7.81      -0.21      -0.11
      8.04      -0.06       0.03
      8.15       0.16       0.05
      8.33       0.11      -0.12
      8.70      -0.02      -0.54
      8.49       0.38      -0.23
      8.36       0.13      -0.51
      7.98       0.10       0.24
      7.77      -0.16       0.06
      7.21      -0.39       0.35
      7.18       0.09       0.56
      7.39       0.61       0.27
      7.52       0.42      -0.05
      7.00      -0.16       0.29
      7.31      -0.18       0.36
      7.72      -0.01       0.31
      7.53       0.18       0.04
      7.92       0.16      -0.07
      7.94      -0.02      -0.07
      7.31      -0.31      -0.03
      7.26       0.26       0.05
      7.34       0.19      -0.53
      7.64       0.15      -0.28
      7.33       0.33       0.28
      7.95       0.77       0.37
      7.96       0.28       0.08
      8.03       0.04      -0.34
      8.17      -0.10      -0.02
      7.84      -0.08      -0.15
      7.69      -0.56      -0.25
      7.87      -0.29      -0.28
      7.46       0.11      -0.38
      7.39       0.23       0.02
      7.55       0.50      -0.25
      7.56      -0.11      -0.32
      7.41       0.45      -0.15
      7.94      -0.02      -0.19
      7.77       0.31      -0.06
      7.38       0.38       0.15
      8.06      -0.01       0.21
      8.60       0.04       0.01
      8.41       0.54      -0.33
      7.81       0.68       0.07
      8.23      -0.08      -0.03
      7.95      -0.91      -0.24
      7.86      -0.72      -0.29
      8.11      -0.49       0.36
      7.76       0.03       0.38
      8.26       0.17      -0.24
      8.13       0.33       0.14
      8.18      -0.10      -0.11
      7.89       0.04      -0.18
      8.57       0.19      -0.19
      8.34       0.11      -0.40
      7.80       0.05      -0.03
      8.20       0.41      -0.07
      7.68       0.30      -0.16
      7.04       0.18       0.52
      7.02       0.35       0.45
      7.54       0.25       0.07
      7.61      -0.34      -0.02
      7.05      -0.46      -0.05
      7.16      -0.52      -0.14
      7.22      -0.25       0.07
      7.91       0.02       0.19
      8.40       0.25      -0.03
      7.79       0.00      -0.11
      7.42       0.10      -0.24
      7.70      -0.07      -0.39
      7.33       0.17      -0.13
      7.37       0.18       0.05
      7.61       0.27       0.37
      7.45      -0.01       0.07
      7.46      -0.55      -0.26
      7.69      -0.15      -0.34
      8.32       0.30      -0.37
      7.90      -0.29      -0.19
      7.18      -0.41       0.20
      7.72      -0.01      -0.07
      7.61       0.34       0.06
      7.55       0.01      -0.27
      7.33      -0.02       0.20
      7.47       0.10      -0.09
      8.06       0.28      -0.18
      8.42       0.14      -0.42
      8.82      -0.21      -0.03
      8.70      -0.02       0.06
      8.52       0.23      -0.36
      8.41       0.73       0.05
      7.98       0.22      -0.27
      8.09       0.14       0.34
      8.42      -0.37      -0.29
      7.65      -0.54       0.77
      7.75      -0.15       0.10
      7.73       0.07       0.14
      7.77      -0.28       0.05
      7.80      -0.03       0.21
      7.73       0.13       0.22
      7.97       0.01       0.12
      7.83       0.35       0.11
      7.53       0.70       0.45
      7.59       0.34       0.32
      7.84       0.45       0.34
      7.21       0.24       0.35
      7.30      -0.18       0.28
      7.69       0.05      -0.11
      7.60      -0.17       0.09
      7.94      -0.37       0.17
      7.52      -0.40       0.19
      7.10      -0.74      -0.26
      7.36      -0.66      -0.37
      7.76      -0.58      -0.13
      7.95       0.17       0.23
      7.76       0.27      -0.07
      7.64       0.37      -0.56
      7.30       0.38      -0.27
      6.99       0.08       0.01
      6.89       0.42       0.64
      7.09      -0.49       0.02
      7.84       0.11      -0.26
      7.84      -0.06      -0.40
      7.93      -0.14      -0.05
      7.58       0.38       0.06
      7.22       0.18       0.23
      7.23      -0.44       0.40
      7.71       0.23      -0.05
      6.89       0.18      -0.18
      7.05      -0.08       0.06
      7.72      -0.07      -0.10
      7.61      -0.07       0.16
      7.19       0.50       0.28
      7.07      -0.23      -0.10
      8.40       0.00      -0.06
      8.21       0.61      -0.27
      8.12       0.26      -0.38
      8.45       0.30      -0.61
      8.57       0.25      -0.58
      8.74       0.44       0.13
      7.83       0.23      -0.01
      7.85       0.11      -0.48
      7.65       0.32       0.13
      8.45       0.02      -0.44
      7.68      -0.66       0.14
      7.47      -0.32       0.26
      4.63       0.47       0.74
      4.55      -0.14       0.51
      5.16       0.62       0.24
      5.41       0.82       0.34
      5.57       0.70       0.30
      5.72       0.40       0.33
      7.66       0.27       0.30
      7.41       0.34       0.25
      7.16      -0.03       0.42
      7.55      -0.05       0.15
      7.68      -0.28      -0.10
      7.42      -0.27       0.25
      8.17      -0.40      -0.35
      7.35      -0.11      -0.23
      7.04      -0.31       0.92
      7.51       0.30       0.47
      7.29       0.32      -0.07
      7.26       0.41      -0.15
      7.44       0.34      -0.24
      7.57       0.37      -0.15
      6.80       0.10       0.35
      6.50      -0.54       0.01
      6.45      -0.39      -0.12
      6.59      -0.07      -0.47
      6.74       0.04       0.02
      7.32       0.30      -0.30
      7.13       0.46      -0.15
      7.42       0.08       0.07
      7.26       0.20       0.34
      8.06       0.05      -0.37
      7.96       0.13      -0.28
      7.22       0.19       0.17
      7.41       0.34       0.17
      7.31       0.51       0.48
      7.96      -0.66      -0.08
      7.19       0.29       0.77
      6.90       0.13       0.20
      7.21       0.07      -0.09
      7.85       0.22      -0.39
      7.31      -0.46       0.18
      8.24       0.31      -0.42
      7.66       0.49      -0.06
      7.20       0.11       0.11
      7.62       0.08       0.32
      7.35      -0.39      -0.02
      7.22      -0.28      -0.06
      7.04      -0.01       0.27
      4.18       0.16       0.62
      3.11       0.50       0.53
      2.56       0.64       0.86
      2.80       0.82       0.56
      3.67       0.32       0.73
      3.87       0.27       0.83
      7.80       0.15       0.37
      7.35       0.37       0.52
      7.43       0.29       0.52
      7.61      -0.25       0.02
      7.46      -0.24       0.25
      7.57      -0.32       0.28
      7.71      -0.46      -0.58
      7.60       0.01      -0.36
      6.98       0.27       0.17
      6.72       0.37       0.37
      6.87       0.08       0.11
      7.10       0.15       0.10
      7.15       0.13      -0.04
      7.32       0.19       0.06
      7.17       0.08       0.23
      7.19      -0.16      -0.50
      6.56      -0.49       0.50
      6.54      -0.61       0.24
      6.77      -0.35       0.09
      6.79      -0.58      -0.08
      6.96       0.25       0.27
      6.29       0.27       0.32
      7.15      -0.22       0.15
      7.02      -0.06       0.26
      7.58       0.33      -0.48
      6.69      -0.08       0.51
      6.54      -0.43       0.81
      8.11       0.05       0.17
      8.58      -0.34      -0.59
      6.41      -0.00       0.84
      6.73       0.07       0.37
      7.02       0.36       0.25
      6.77       0.26       0.01
      6.62       0.27       0.05
      6.26       0.40       0.21
      6.83      -0.05       0.20
      6.67      -0.10       0.39
      6.85      -0.21       0.26
      6.76      -0.29       0.12
      6.81      -0.18       0.32
      7.00      -0.10       0.36
      4.49       0.09       0.85
      4.20       0.48       0.71
      4.39       0.36       0.82
      4.22       0.52       0.41
      4.25      -0.02       0.72
      4.58       0.10       0.59
      7.64       0.20       0.39
      7.54      -0.03       0.44
      7.94      -0.35       0.04
      7.52      -0.07       0.03
      7.74      -0.23      -0.01
      7.81      -0.40      -0.01
      7.38       0.01      -0.38
      7.09       0.23       0.05
      6.41       0.37       0.80
      6.94       0.06       0.50
      7.71      -0.26       0.06
      7.50      -0.30       0.09
      7.99      -0.02       0.20
      8.00       0.15       0.00
      6.82       0.21      -0.49
      6.38       0.08       0.54
      6.54       0.43       0.26
      7.18      -0.49      -0.02
      7.87      -0.41      -0.47
      7.98      -0.37      -0.81
      7.28       0.43      -0.05
      7.38       0.80      -0.18
      7.44       0.13      -0.31
      6.65       0.62       0.22
      7.69       0.49      -0.61
      7.77      -0.00      -0.26
      7.70       0.31      -0.50
      7.42      -0.28       0.07
      7.39      -0.31       0.07
      7.32      -0.22       0.17
      7.31       0.34       0.39
      6.75       0.14       0.49
      6.95       0.33       0.10
      6.67       0.25       0.47
      6.60       0.00       0.54
      6.64      -0.49       0.45
      6.95      -0.62      -0.05
      7.18      -0.59      -0.01
      7.50      -0.65      -0.48
      7.72      -0.61      -0.44
      7.68      -0.19       0.01
      5.01       0.16       0.35
      3.63       0.25       0.35
      3.82      -0.11       0.68
      3.95       0.04       0.49
      4.12       0.15       0.38
      4.51       0.33       0.15
      7.71       0.52      -0.28
      8.04       0.26      -0.58
      7.52       0.35       0.44
      7.13      -0.19       0.29
      7.89      -0.48       0.46
      7.59      -0.13       0.48
      7.50       0.21      -0.13
      7.31       0.88      -0.06
      7.56       0.23       0.08
      7.38      -0.32      -0.21
      6.75      -0.09       0.18
      6.93      -0.35       0.51
      7.33      -0.06       0.50
      7.12       0.36       0.22
      7.32       0.71       0.22
      7.68       0.36      -0.30
      7.49       0.01      -0.42
      7.97      -0.86      -0.48
      6.98      -1.12       0.18
      5.67      -0.59       0.40
      5.81      -0.74       1.14
      7.07      -0.07       0.11
      7.05       0.53       0.07
      7.69       0.26      -0.49
      7.45      -0.14       0.02
      7.99       0.60      -0.64
      7.39      -0.29      -0.19
      7.54      -0.52       0.09
      7.03       0.53       1.13
      6.46      -0.40       0.47
      6.73      -0.14       0.14
      6.45      -0.02       0.02
      6.76      -0.06       0.15
      6.62      -0.14      -0.08
      6.87      -0.35      -0.32
      7.25      -0.34      -0.77
      6.82      -0.65      -0.50
      6.77      -0.31       0.24
      7.02      -0.03       0.42
      7.33      -0.33       0.07
      7.14      -0.11       0.06
      4.33      -0.05       0.37
      3.40      -0.31       0.50
      4.30      -0.10       0.42
      4.45      -0.06       0.26
      4.58       0.21       0.50
      4.85       0.14      -0.32
      8.31      -0.30      -0.60
      8.36      -0.03      -0.54
      8.40      -0.08      -0.49
      8.59       0.21      -0.25
      7.51       0.37       0.04
      7.56       0.45       0.33
      7.45       0.15       0.35
      8.19       0.07      -0.21
      8.32       0.18      -0.41
      7.86      -0.29      -0.45
      7.68      -0.11       0.08
      7.36       0.39       0.47
      6.52       0.03       0.33
      6.55       0.30       0.59
      6.97       0.04       0.66
      7.84       0.12      -0.47
      7.71      -0.54      -0.63
      8.02      -0.50      -1.15
      6.71       0.44      -0.17
      7.49      -0.06      -0.11
      7.02      -0.31      -0.63
      6.26      -0.23       0.74
      6.93       0.14       0.20
      7.28      -0.06       0.21
      6.90      -0.10       0.44
      6.95      -0.07       0.31
      6.83       0.14       0.29
      6.77      -0.25       0.08
      6.95       0.30       0.46
      6.09      -0.68       0.94
      6.71      -0.61       0.94
      7.17      -0.54       0.58
      6.67      -0.70       0.82
      6.45      -0.59       0.82
      7.21      -0.80      -0.40
      7.16      -0.52      -0.43
      7.30      -0.11      -0.13
      7.89      -0.53      -0.24
      7.21      -0.30       0.14
      7.52      -0.52       0.36
      7.24      -0.22       0.28
      7.55      -0.52       0.15
      7.35      -0.80       0.41
      7.60      -0.41       0.02
      7.31      -0.37      -0.54
      7.44      -0.06      -0.54
      7.24      -0.43      -0.41
      7.72      -0.11       0.11
      7.06       0.03       0.13
      6.56       0.08       0.40
      6.98       0.40       0.31
      6.87      -0.55      -0.28
      7.72       0.02      -0.15
      7.70      -0.06      -0.19
      7.63      -0.23      -0.79
      7.34       0.17      -0.24
      6.83      -0.03       0.31
      8.80       0.40      -0.91
      6.90       0.92       0.79
      7.43      -0.44      -0.08
      7.68      -0.31      -0.08
      7.87      -0.53       0.50
      8.14      -0.12       0.24
      8.02      -0.45       0.21
      8.16      -0.08      -0.83
      8.59       0.17      -1.13
      7.49       0.76       0.25
      7.28       0.57      -0.07
      7.92       0.51       0.09
      6.47       0.28       0.32
      6.84       0.25       0.70
      6.75       0.43       0.62
      7.35       0.19       0.36
      6.55       0.04       0.02
      6.46       0.17      -0.12
      6.59       0.03       0.36
      8.01      -0.27      -0.37
      7.81      -0.38       0.21
      8.14      -0.86       0.61
      6.51      -0.24       0.47
      6.80      -0.27       0.12
      6.85      -0.03      -0.80
      7.07      -0.26      -0.94
      7.74      -0.39      -1.12
      8.13      -0.24      -0.67
      7.73      -0.31      -0.21
      8.03      -0.50       0.10
      7.78      -0.41       0.43
      7.76      -0.82       0.01
      7.62      -0.42      -0.09
      6.96      -0.79       0.38
      7.34      -0.64      -0.05
      7.62      -0.39      -0.30
      7.20      -0.15       0.14
      7.40      -0.31       0.34
      6.56       0.39       0.13
      6.25      -0.20       0.52
      6.49      -0.20       0.68
      6.79      -0.19       0.73
      6.85      -0.37      -0.07
      6.56       0.22       0.08
      6.58       0.45       0.42
      6.74       0.47      -0.15
      7.59      -0.41      -0.11
      7.86      -0.25       0.47
      8.08       0.15       0.48
      7.91      -0.55      -0.06
      6.73      -0.34       0.43
      6.54      -0.52       0.22
      6.91      -0.75       0.58
      7.22      -0.51       0.40
      6.48      -0.29       0.49
      7.05       0.20       0.55
      7.05       0.11       0.37
      8.08       0.60      -0.98
      8.06       0.41      -0.12
      7.50       0.85      -0.05
      7.59       0.51      -0.06
      7.32       0.51      -0.54
      7.23       0.67       0.02
      7.20       0.40      -0.45
      6.64       0.49      -0.27
      7.32       0.07      -0.13
      8.48      -0.04      -0.38
      8.43      -0.25      -0.54
      7.88      -0.19       0.01
      8.02      -0.08      -0.03
      8.17      -0.25       0.38
      8.02       0.01      -0.47
      8.02      -0.32      -0.63
      8.11      -0.16      -0.99
      8.37       0.12      -0.76
      8.17       0.37      -0.96
      8.63      -0.05      -0.24
      8.49      -0.17      -0.60
      8.34      -0.45      -0.08
      7.38       0.21       0.43
      7.25      -0.39      -0.55
      7.57      -0.92      -0.18
      7.51      -0.57       0.15
      7.39      -0.33       0.07
      7.31       0.04      -0.01
      6.97       0.18       0.21
      6.67       0.31      -0.01
      6.76      -0.41      -0.19
      7.23      -0.22       0.33
      7.59      -0.43       0.49
      7.24      -0.00       0.28
      6.92       0.06       0.51
      7.66      -0.82       0.49
      8.22      -0.88      -0.22
      8.00      -0.73      -0.39
      8.09      -0.11       0.01
      8.66      -0.13      -0.24
      7.37       0.01      -0.40
      7.34      -0.06      -0.70
      7.47      -0.07      -0.00
      7.49      -0.51       1.24
      6.73      -0.18       0.53
      7.24      -0.68       0.44
      6.83      -0.38       0.76
      7.66       0.16      -0.09
      7.38       0.25      -0.04
      6.98       0.26       0.38
      7.17       0.64       0.42
      7.19       0.38      -0.03
      7.28       0.59      -0.18
      7.56       0.58      -0.45
      7.66       0.36      -0.32
      7.74       0.13      -0.14
      7.88       0.21       0.11
      7.90       0.17       0.15
      8.21      -0.18       0.27
      8.36      -0.03      -0.10
      7.33      -0.28       0.42
      7.53       0.44       0.08
      7.52      -0.35      -0.48
      7.62      -0.26       0.59
      7.59      -0.32      -0.46
      7.50      -0.17      -0.51
      8.00      -0.28      -0.49
      8.34      -0.25      -0.78
      8.24       0.27      -0.38
      8.78      -0.30       0.23
      8.13      -0.54      -0.01
      8.03      -0.46      -0.22
      7.48      -0.01      -0.30
      7.16      -0.25       0.57
      7.26      -0.33       0.20
      7.30       0.39       0.07
      7.25       0.09       0.50
      7.36      -0.81       0.69
      7.89      -0.93       0.44
      7.92      -1.07       0.13
      7.51      -0.39       0.37
      7.82      -0.44       0.23
      8.00      -0.72      -0.12
      7.82      -0.77      -0.03
      8.02      -1.08       0.10
      7.94      -0.42      -0.06
      8.11      -0.38      -0.61
      8.37       0.03      -0.87
      8.47      -0.01      -0.64
      8.33      -0.30      -0.91
      7.27       0.03       0.75
      7.51      -0.18       0.42
      7.28      -0.27       0.21
      7.31      -0.39      -0.04
      7.13      -0.19       0.34
      7.65       0.18       0.50
      7.43       0.34       0.44
      7.51      -0.28       0.19
      7.70       0.06       0.06
      7.96       0.28      -0.34
      8.27       0.13      -0.34
      7.95       0.25      -0.13
      8.06       0.44       0.08
      8.33       0.23      -0.01
      8.75      -0.27      -0.06
      8.38      -0.40       0.20
      8.60      -0.58       0.29
      7.75      -0.52       0.26
      7.67      -0.33      -0.12
      7.58       0.30       0.27