# vtk DataFile Version 3.0
Low resolution, disturbed wind of XZ Slice at time = 27 seconds.
ASCII
DATASET STRUCTURED_POINTS
DIMENSIONS    47     1    12
ORIGIN     635.00    1000.00      15.00
SPACING      30.00      30.00      30.00
POINT_DATA             564
VECTORS DisXZ float
      3.69       0.83      -0.00
      4.07      -0.00       0.14
      4.54      -0.68       0.09
      3.93      -0.09       0.17
      4.59      -0.33      -0.01
      4.58       0.07      -0.07
      4.56       0.27       0.03
      5.46       0.49      -0.42
      5.18      -0.05      -0.18
      4.72       0.83       0.12
      4.87       0.15      -0.08
      4.39       0.56      -0.26
      3.94       0.25      -0.09
      4.59       0.56       1.28
      5.65       1.02      -0.42
      5.83      -0.11       0.23
      5.81      -0.29       0.23
      4.30       0.06       1.35
      2.90      -0.25       0.42
      4.79       0.35      -0.25
      5.55      -0.26       0.55
      4.39      -0.38      -0.09
      4.48      -0.27      -0.11
      4.69      -0.14       0.33
      3.64      -0.45       0.18
      4.44       1.11       0.20
      4.76       0.48      -0.41
      4.72       0.33      -0.00
      4.63       0.53       0.22
      4.12       0.00      -0.20
      4.49       0.58      -0.52
      4.44       0.75      -0.20
      4.48      -0.78       0.32
      4.88       0.26      -0.12
      4.92       0.75      -0.13
      5.05       0.39      -0.15
      4.81       1.09      -0.20
      5.66       0.45      -0.36
      6.23       0.75      -0.12
      5.98       0.73      -0.67
      4.41       0.49       0.65
      4.77       0.64       0.30
      5.33       0.23      -0.43
      5.15       0.32      -0.61
      4.19       0.50       0.70
      5.65      -0.36      -0.39
      3.98      -0.15       0.84
      5.15      -0.01       0.32
      5.34      -0.13       0.14
      5.50      -0.27       0.28
      5.90       0.15      -0.02
      6.16       0.54       0.15
      5.88       0.40      -0.04
      5.91       0.14      -0.03
      6.07       0.14       0.40
      6.61       0.32      -0.18
      5.94      -0.28      -0.06
      5.73      -0.40       0.08
      6.20      -0.09       0.04
      2.52       0.08       0.17
      2.65       0.05       0.39
      2.58       0.42       0.14
      3.03       0.36      -0.04
      3.50      -0.57       0.30
      3.23      -0.38       1.00
      1.85       0.10       1.14
      6.12      -0.87      -0.34
      6.42      -0.39       0.94
      7.00      -1.03       0.03
      6.59      -0.35      -0.15
      6.80       0.08       0.75
      6.41      -0.26       0.42
      5.97      -0.25      -0.22
      6.33       0.18      -0.20
      5.96       1.00       0.72
      5.79       0.99       0.19
      5.90       0.21       0.22
      6.35       0.38      -0.11
      6.59      -0.16       0.27
      6.21       0.39       0.04
      6.36       0.74       0.23
      5.96       0.46       0.37
      5.74       0.08       0.02
      6.44      -0.36      -1.08
      6.50       0.37       0.27
      7.38       0.05      -1.11
      7.20       0.61      -0.60
      6.70       0.32      -0.16
      7.04       0.62       0.55
      6.24       0.57       0.42
      6.70       0.20      -0.59
      6.92      -0.26      -0.40
      7.17       0.25      -0.54
      5.60      -0.27       0.83
      8.00       0.27       0.01
      6.44      -0.02       0.69
      6.16      -0.01       0.61
      6.39       0.17       0.35
      6.61       0.25       0.22
      6.79       0.37       0.25
      6.75       0.33       0.01
      6.54      -0.11       0.11
      6.34      -0.10       0.32
      6.54      -0.09       0.45
      6.41      -0.15       0.10
      6.57      -0.03      -0.08
      3.43      -0.09       0.42
      3.83      -0.23       0.65
      3.82       0.28       0.63
      3.94       0.39       0.78
      4.36       0.25       0.68
      3.90       0.08       0.75
      4.25      -0.54       0.66
      7.67      -0.53       0.22
      7.49       0.15       0.16
      7.41      -0.29       0.11
      7.25      -0.53       0.09
      7.65      -0.25      -0.03
      7.45      -0.59       0.65
      7.70       0.01      -0.20
      7.50       0.76      -0.75
      6.23       0.41       0.73
      6.52      -0.00       0.50
      6.94      -0.32       0.12
      6.96      -0.09       0.10
      7.73      -0.44       0.25
      7.29       0.62      -0.05
      6.86       0.39       0.06
      6.70       0.06       0.14
      6.20       0.61       0.53
      6.54      -0.25       0.01
      6.92      -1.52       0.39
      7.52      -0.77      -0.39
      7.19      -0.47      -0.55
      6.83       0.99       0.36
      6.94       0.92      -0.16
      7.20       0.77       0.08
      7.27       0.06      -0.59
      7.15       0.56       0.16
      7.41      -0.25      -0.41
      6.89       0.33       0.16
      6.95      -0.56       0.52
      7.69       0.22       0.69
      7.95      -0.01       0.25
      7.50       0.13       0.53
      7.34       0.28       0.03
      6.35      -0.03       0.35
      6.16       0.04       0.25
      6.78      -0.40       0.87
      7.07      -0.16       0.29
      7.16      -0.46       0.32
      7.71      -0.81      -0.01
      7.53      -0.61       0.02
      7.05      -0.65       0.57
      4.20      -0.24       0.84
      4.20       0.18       0.97
      4.63       0.38       0.57
      4.27       0.32       0.95
      4.46       0.27       0.44
      5.00       0.97       0.41
      7.89       1.34      -0.07
      7.93       0.72       0.27
      8.05       0.34      -0.02
      8.21       0.08       0.38
      7.87       0.15       0.35
      8.34      -0.19      -0.02
      8.62      -0.04      -0.09
      8.33      -0.11       0.01
      7.56       0.34       0.30
      6.98       0.55       0.41
      7.52      -0.07       0.57
      8.22      -0.23      -0.04
      7.91       0.17      -0.52
      8.21       0.14       0.05
      7.51       0.45       0.03
      7.04      -0.04       0.28
      7.81      -0.18       0.40
      7.92      -0.52      -0.22
      8.32      -0.24      -0.31
      8.00      -0.31      -0.38
      7.41      -0.45      -0.19
      7.73      -0.58       0.30
      8.47      -0.49      -0.43
      8.12      -0.15      -0.32
      7.83       0.03      -0.05
      7.81       0.44      -0.01
      8.24       0.28      -0.32
      8.06      -0.46      -0.26
      6.78      -1.02       0.71
      6.87      -1.06       0.58
      7.16      -0.20       0.76
      7.46       0.52       0.54
      6.45      -0.28       0.52
      6.31      -0.13       0.17
      6.76       0.11      -0.18
      7.37      -0.05      -0.06
      7.44      -0.02       0.26
      7.35      -0.45       0.16
      7.30      -0.53       0.02
      7.23      -0.86       0.21
      7.40      -0.58       0.35
      2.86      -0.35       1.02
      3.10      -0.03       0.73
      3.48      -0.16       0.79
      3.93      -0.14       0.84
      4.19       0.02       0.58
      4.16       0.29       0.20
      7.93       0.57       0.09
      8.05       0.82      -0.03
      8.03       0.58       0.16
      8.48       0.59       0.40
      8.59       0.18       0.54
      8.49      -0.18      -0.15
      8.55       0.03       0.16
      8.14       0.18       0.00
      8.21      -0.02       0.39
      8.37       0.03       0.15
      8.52      -0.05      -0.08
      8.86       0.02      -0.31
      8.57      -0.05       0.25
      8.05      -0.30       0.13
      8.05       0.10       0.26
      7.64      -0.35       0.55
      7.90      -0.59       0.63
      8.05      -1.05      -0.05
      8.26      -0.50       0.22
      8.45      -0.48       0.31
      8.54      -0.51       0.33
      8.58      -0.61       0.04
      8.39      -0.88      -0.06
      8.47      -0.57       0.18
      8.51      -0.09       0.00
      8.89      -0.29      -0.13
      8.66       0.14      -0.04
      8.84       0.02      -0.39
      8.35      -1.50       0.85
      7.79      -0.93       0.71
      7.49      -0.30       0.58
      7.19       0.11       1.20
      7.28       0.51       0.57
      7.95       0.31      -0.38
      7.85       0.02      -0.62
      8.21       0.65      -0.65
      7.44      -0.08       0.11
      7.25       0.11       0.54
      7.61       0.35       0.40
      7.46      -0.22       0.53
      8.00      -0.16       0.43
      6.44      -0.02       0.11
      6.74       0.14       0.14
      6.99       0.28      -0.27
      6.41       0.12       0.19
      6.56      -0.30       0.43
      6.65      -0.64       0.38
      8.78      -0.43      -0.10
      8.23       0.63      -0.08
      8.18       1.05       0.42
      8.45       0.49       0.66
      8.60       0.01       0.26
      8.65      -0.09       0.09
      8.72      -0.24       0.08
      9.00      -0.21      -0.08
      8.72       0.09       0.39
      8.88       0.50      -0.31
      8.87       0.47      -0.12
      8.88      -0.33       0.02
      8.46      -0.29       0.34
      8.37       0.09       0.21
      8.09       0.23       0.47
      7.77       0.18       0.39
      8.02       0.09       0.35
      7.64       0.09       0.50
      8.29      -0.96       0.26
      8.47      -0.53       0.24
      8.13      -0.48       0.20
      8.30      -0.60       0.02
      8.31      -0.88      -0.10
      8.53      -0.66       0.27
      8.76      -0.50       0.11
      8.88      -0.34      -0.04
      9.32      -0.15      -0.01
      8.96       0.18      -0.25
      7.71      -1.10       0.73
      7.71      -0.61       1.09
      8.01      -0.12       1.15
      8.61       0.50       0.74
      8.75      -0.15      -0.26
      8.59      -0.22      -0.80
      8.51      -0.92      -0.35
      8.22       0.42      -0.42
      8.54      -0.20      -0.02
      8.29      -0.24       0.34
      8.04      -0.01       0.68
      8.41       0.00       0.67
      8.35      -0.12       0.41
      8.64      -0.65      -0.05
      8.35      -0.73      -0.37
      8.89      -0.95      -0.44
      8.81       0.05       0.31
      8.35       0.10       0.14
      8.75       0.22      -0.10
      9.12       0.26      -0.10
      9.26       0.37       0.09
      9.37       0.34       0.38
      8.79       0.98       0.59
      9.10       0.62       0.49
      9.71      -0.23      -0.11
      9.17      -0.28       0.09
      9.15      -0.27       0.11
      8.80      -0.29       0.22
      9.00      -0.46      -0.22
      9.25      -0.38      -0.42
      9.05       0.21       0.01
      8.64      -0.18       0.58
      8.34      -0.23       0.08
      8.75      -0.03       0.12
      9.26       0.47       0.36
      8.63       0.16       0.56
      8.35       0.01       0.13
      8.61      -0.51      -0.47
      8.89      -0.76       0.03
      8.92      -0.56       0.09
      9.21      -0.44       0.03
      9.33      -0.72      -0.09
      9.15      -0.92      -0.11
      9.50      -0.88      -0.01
      9.94      -0.73      -0.20
      9.96      -0.82      -0.25
      9.27      -1.06      -0.10
      8.31      -0.65       0.92
      8.42      -1.52       0.89
      8.87      -2.03       0.57
      9.17      -1.72       0.33
      9.34      -1.49      -0.41
     10.01      -1.19      -0.73
      8.67      -0.14      -0.08
      8.56       0.04       0.26
      8.59      -0.72       0.15
      8.17      -0.88       0.38
      8.04      -0.36       0.57
      8.35      -0.53       0.49
      8.67      -1.24       0.44
      9.40      -0.83       0.10
      9.37      -0.79      -0.15
      8.51      -1.21       0.02
      8.38      -1.51       0.30
      8.10      -1.22       0.13
      7.94      -1.00       0.09
      8.14      -1.05       0.06
      8.63      -0.92       0.17
      8.88      -0.19       0.48
      9.05      -0.20       0.71
      9.16      -0.51       0.54
      9.09      -0.22       0.43
      8.86      -0.46       0.33
      8.70      -0.86       0.38
      8.83      -0.83       0.06
      8.68      -0.76      -0.53
      8.91      -0.47      -0.49
      9.03      -0.05      -0.09
      9.33      -0.20       0.27
      9.71      -0.16      -0.01
      9.85      -0.02      -0.24
      9.11      -0.07       0.20
      9.00       0.14       0.51
      9.20       0.37       0.09
      9.38      -0.18      -0.45
      9.14      -0.19      -0.20
      8.99      -0.32       0.10
      9.30      -0.64       0.10
      9.63      -1.00      -0.04
      9.55      -1.15      -0.19
      9.45      -0.86      -0.00
      9.56      -0.61      -0.06
      9.66      -0.66      -0.30
      9.89      -0.82      -0.04
      8.82      -0.28       0.52
      8.72      -0.29       0.63
      8.64      -0.80       0.54
      8.84      -1.18       0.49
      9.16      -0.97       0.28
      9.28      -0.15       0.08
      9.22      -0.23       0.11
      8.71      -0.27       0.19
      8.89      -0.33       0.47
      9.10      -0.60       0.47
      9.01      -0.69       0.22
      8.80      -0.80       0.35
      9.18      -0.76       0.37
      9.50      -1.21      -0.08
     10.00      -1.00       0.22
      9.65      -0.50       0.28
      8.35      -0.84       0.44
      8.26      -1.08       0.18
      8.66      -1.16      -0.02
      8.86      -1.07      -0.01
      8.68      -1.20       0.12
      8.53      -0.90       0.19
      8.55      -0.79       0.35
      8.66      -1.00       0.39
      8.96      -1.13       0.26
      8.90      -0.95       0.68
      8.94      -1.00       0.73
      9.13      -1.12       0.04
      9.10      -0.85      -0.49
      8.81      -0.84      -0.44
      8.64      -0.87      -0.28
      8.75      -0.50      -0.15
      9.23       0.06      -0.05
      9.38       0.15      -0.03
      8.98       0.03       0.02
      9.02      -0.05       0.03
      9.34      -0.19      -0.18
      9.40      -0.17      -0.27
      9.21      -0.31      -0.33
      9.45      -0.54      -0.29
      9.77      -0.46      -0.30
      9.86      -0.71      -0.32
      9.83      -1.00      -0.34
      9.80      -0.89      -0.05
      9.92      -0.87      -0.19
      9.94      -0.73      -0.65
     10.06      -0.65      -0.20
      9.50      -0.29       0.31
      9.17      -0.33       0.85
      9.07      -0.43       0.80
      8.99      -0.18       0.39
      8.94      -0.02       0.36
      9.30      -0.47       0.41
      8.91      -0.53       0.25
      8.66      -0.48       0.41
      9.03      -0.43       0.74
      9.25      -0.36       0.76
      9.15      -0.80       0.41
      9.18      -0.54       0.19
      9.39      -0.34      -0.09
      9.27      -0.84       0.36
      8.81      -0.88       0.75
      8.80      -0.27       0.70
      9.15      -0.04       0.35
      9.29      -0.18      -0.08
      9.36      -0.42       0.02
      9.24      -0.51       0.23
      9.49      -0.49       0.12
      9.41      -0.76       0.06
      9.09      -0.96       0.33
      9.18      -1.00       0.28
      9.46      -1.09       0.20
      9.75      -1.29       0.43
     10.64      -1.38       0.24
     10.71      -1.21       0.04
      9.86      -0.87      -0.19
      9.51      -1.13      -0.10
      9.28      -0.82      -0.02
      9.10      -0.39      -0.09
      8.85      -0.19      -0.27
      8.99      -0.06       0.02
      9.25       0.03       0.15
      9.31       0.06       0.16
      9.31      -0.07       0.27
      9.61      -0.43       0.10
      9.99      -0.49      -0.27
     10.08      -0.24      -0.40
      9.99      -0.31      -0.24
     10.09      -0.60      -0.13
     10.00      -0.81      -0.16
      9.96      -0.91      -0.28
     10.20      -0.74      -0.16
     10.21      -0.37      -0.15
     10.25      -0.44      -0.46
      9.66       0.10       0.24
      9.27      -0.18       0.37
      9.42      -0.42       0.42
      9.76      -0.19       0.38
      9.35      -0.28       0.22
      8.99      -0.64       0.33
      9.20      -0.87       0.48
      9.41      -0.67       0.41
      9.20      -0.90       0.37
      9.13      -1.38       0.49
      9.58      -0.84       0.76
      9.81      -0.01       0.54
      9.04      -0.33       0.13
      8.64      -0.65       0.58
      8.87      -0.54       0.89
      9.41      -0.44       0.55
      9.75      -0.24       0.21
     10.08      -0.32       0.22
      9.95      -0.60       0.02
     10.06      -0.48       0.09
      9.97      -0.63       0.30
      9.34      -0.69       0.25
      9.34      -0.94       0.38
      9.47      -1.13       0.13
      9.46      -1.04       0.06
      9.99      -1.02       0.08
     10.01      -1.21       0.06
      9.71      -1.13       0.24
      9.73      -0.93       0.42
      9.81      -0.83       0.11
      9.92      -0.89      -0.01
      9.94      -0.89      -0.01
      9.30      -1.01      -0.55
      9.02      -0.90      -0.16
      9.00      -0.55       0.11
      9.01      -0.27       0.11
      9.16      -0.22       0.07
      9.53      -0.39      -0.11
     10.06      -0.46      -0.43
     10.52      -0.63      -0.29
     10.21      -0.58      -0.08
      9.92      -0.36       0.11
      9.97      -0.31       0.05
     10.19      -0.43      -0.11
     10.15      -0.61      -0.06
     10.34      -0.77      -0.08
     10.45      -0.64      -0.03
      9.52      -0.23       0.05
      9.64       0.01      -0.02
      9.60      -0.40       0.20
      9.33      -0.47       0.26
      9.18      -0.46       0.39
      9.28      -0.36       0.56
      9.36      -0.16       0.69
      9.36      -0.09       0.54
      9.25      -0.04       0.37
      9.27       0.01       0.50
      9.16       0.10       0.67
      8.96       0.12       0.58
      9.05       0.01       0.31
      9.15      -0.04       0.26
      9.27       0.07       0.23
      9.61       0.27       0.15
      9.69       0.54       0.16
      9.96       0.38       0.34
     10.04       0.27      -0.04
      9.97      -0.05      -0.17
      9.96      -0.44       0.15
      9.90      -0.53       0.43
      9.84      -0.44       0.34
      9.82      -0.71       0.18
      9.68      -0.77       0.33
      9.61      -0.76       0.25
      9.69      -0.87       0.02
      9.77      -1.05       0.08
      9.88      -1.24       0.04
      9.92      -1.42      -0.31
      9.91      -1.26      -0.29
      9.87      -1.01      -0.06
      9.79      -0.90       0.02
      9.77      -0.78      -0.06
      9.71      -0.74       0.02
      9.64      -0.75       0.16
      9.71      -0.75       0.18
      9.94      -0.82       0.03
      9.93      -0.87      -0.20
      9.89      -0.63      -0.19
     10.09      -0.54      -0.26
     10.26      -0.53      -0.29
     10.32      -0.56      -0.14
     10.48      -0.73      -0.20
     10.14      -0.93      -0.25
      9.92      -0.91      -0.20
     10.05      -0.64      -0.11
