# vtk DataFile Version 3.0
Low resolution, disturbed wind of XY Slice at time = 39 seconds.
ASCII
DATASET STRUCTURED_POINTS
DIMENSIONS    47    26     1
ORIGIN     635.00     635.00      85.00
SPACING      30.00      30.00      30.00
POINT_DATA            1222
VECTORS DisXY float
      8.73       0.63      -0.00
      8.94       0.15       0.79
      8.65      -0.27       0.43
      8.26      -0.25       0.02
      8.50      -0.42      -0.21
      8.77      -0.41       0.33
      9.04       0.43      -0.04
      8.92       0.45       0.23
      9.07       0.57       0.11
      8.58       0.34       0.80
      9.23       0.93       0.42
      8.85       0.36      -0.08
      8.26       0.20       0.58
      7.69       0.33       0.72
      7.77       0.60       0.99
      8.60       0.67       0.44
      8.55       0.05       0.47
      8.66       0.15      -0.04
      8.55       0.20       0.10
      8.96      -0.12      -0.46
      8.76       0.41       0.03
      9.01       0.47       0.11
      9.22      -0.04       0.13
      8.44      -0.17      -0.16
      9.10       0.42       0.01
      8.76       0.99       0.38
      9.42       1.25      -0.57
      7.99       0.66       0.24
      7.57       0.46       0.50
      8.28       0.69       0.15
      8.47       0.32      -0.55
      8.52       0.29      -0.27
      8.24       0.11       0.17
      8.61      -0.48      -0.17
      8.67       0.28       0.00
      8.11       0.46       0.80
      7.59      -0.15      -0.08
      7.67       0.19       0.09
      7.19      -0.10       0.44
      6.97       0.36       0.34
      6.71      -0.85       0.49
      6.89      -0.18       0.38
      6.69       0.21       0.04
      6.75      -0.39      -0.16
      6.67       0.11       0.52
      6.47      -0.05       0.20
      6.78      -0.22       0.18
      7.33      -0.61       0.09
      7.49      -0.61       0.21
      7.75      -0.14       0.19
      7.51      -0.23       0.31
      7.84      -0.97       0.05
      7.85      -1.04      -0.21
      8.45       0.22      -0.32
      7.81       0.66       0.50
      7.73       0.51       0.89
      7.51       0.05       0.81
      7.55       0.40       0.45
      7.73       0.47       0.03
      8.08       0.47       0.49
      7.99       0.48       0.41
      7.89       0.58       0.43
      7.77       0.28       0.05
      7.84       0.24      -0.26
      8.13      -0.04       0.12
      7.70       0.01      -0.37
      7.35      -0.32       0.53
      7.26       0.59       0.67
      7.78       0.30       0.09
      8.57      -0.18      -0.21
      8.84       0.23      -0.10
      8.49       0.15       0.06
      8.75       0.59      -0.05
      8.88       1.31      -0.20
      8.86       0.95      -0.04
      9.03       0.52       0.03
      8.38       0.65      -0.25
      8.29       0.53       0.10
      8.42       0.32       0.05
      8.25       0.06       0.57
      8.09      -0.55      -0.09
      8.33       0.13       0.10
      7.86       1.28       0.34
      8.72      -0.17       0.03
      8.36       0.63       0.14
      7.50       0.68      -0.23
      8.13       0.45       0.11
      7.76      -0.45       0.19
      7.58      -0.18      -0.13
      7.39      -0.12      -0.02
      7.26      -0.54      -0.13
      7.71      -0.02      -0.09
      7.73       0.71      -0.44
      7.41      -0.48       0.30
      7.97      -0.66      -0.03
      7.92      -0.96      -0.44
      8.06      -0.50       0.03
      8.10      -0.22      -0.38
      7.85      -0.78      -0.43
      7.81      -0.83       0.22
      7.61       0.46       0.19
      7.91       1.15       0.20
      8.09       0.50       0.92
      7.50       0.19       0.29
      7.23       0.28      -0.06
      7.29       0.22       0.05
      7.37       0.42       0.32
      7.41       0.14       0.41
      7.48       0.13       0.41
      7.53       0.16       0.42
      7.51       0.01       0.28
      7.90       0.04      -0.15
      8.24       0.33      -0.01
      7.84       0.27       0.30
      8.23      -0.11       0.19
      8.89       0.43      -0.20
      8.08      -0.18       0.23
      7.89       0.04       0.07
      8.33       0.36       0.41
      8.54       0.54      -0.43
      8.61       0.59      -0.39
      8.56       0.92      -0.36
      8.66       0.57      -0.28
      7.99       0.57      -0.13
      8.18       1.11       0.59
      8.93       0.64       0.60
      8.68       0.07       0.23
      7.68      -0.48      -0.01
      7.74      -0.05       0.40
      8.01       0.83       0.21
      7.80       0.35       0.10
      7.92       0.17       0.66
      8.20       0.91      -0.35
      7.60       0.24       0.34
      7.06      -0.13       0.26
      7.30      -0.40       0.25
      7.26      -0.73       0.59
      7.36      -0.55       0.30
      7.29       0.07      -0.04
      7.70       0.36      -0.83
      8.11       0.19      -0.12
      7.16      -0.82       0.30
      7.38      -0.12      -0.14
      6.96      -0.97      -0.08
      7.11      -0.85      -0.34
      6.89      -0.28      -0.04
      6.84      -0.49       0.85
      7.08      -0.16       0.83
      6.98      -0.49       0.81
      7.29       0.48       0.04
      7.03       0.07      -0.12
      7.13       0.37       0.70
      7.02      -0.06       0.58
      7.28       0.10       0.27
      7.45       0.12       0.56
      7.56       0.33      -0.07
      7.77       0.17      -0.66
      7.85      -0.01      -0.09
      7.97       0.35       0.08
      7.96       0.50      -0.45
      7.38      -0.04      -0.30
      7.30      -0.27       0.28
      7.53      -0.04       0.12
      7.33      -0.22       0.61
      7.87      -0.16       0.48
      7.42      -0.04       0.36
      7.13       0.55      -0.27
      7.49      -0.01      -0.07
      7.49       0.27       0.56
      8.39       0.59       0.76
      7.85       0.67       0.93
      7.38       0.62       0.75
      7.79       0.42       0.19
      7.83       0.24       0.08
      7.78       0.59      -0.43
      7.56      -0.15      -0.10
      7.67       0.95      -0.20
      7.52       0.50       0.44
      7.16      -0.02       0.22
      7.17       0.45       0.35
      7.51       0.51       0.19
      7.71       0.29       0.21
      7.09      -0.04       0.21
      7.36      -0.52       0.74
      7.62      -0.21       0.26
      8.00      -0.15      -0.48
      7.41      -0.12      -0.69
      8.22      -0.44      -0.57
      8.27      -0.94      -0.30
      7.67      -0.78       0.30
      8.63      -0.19      -0.13
      8.84       0.09      -0.24
      7.38       0.11      -0.18
      6.77       0.32       0.50
      6.22      -0.06       0.26
      6.22      -0.09       0.50
      5.93       0.77       0.59
      6.56       0.44       0.59
      6.83       0.13      -0.18
      6.82      -0.57       0.01
      6.28      -0.04       0.32
      6.88       0.23       0.25
      6.95      -0.13       0.42
      7.35       0.66       0.50
      7.11       0.39      -0.11
      6.41       0.19       0.64
      6.22       0.09       0.52
      6.49       0.31       0.50
      6.69      -0.11       1.07
      6.44      -0.68       0.24
      6.78      -0.34      -0.05
      6.94       0.22       0.42
      6.80      -0.03       0.36
      6.91       0.19       0.49
      7.75       0.18      -0.39
      7.08       0.37       0.54
      7.00       0.60       0.41
      7.17       0.37       0.03
      7.09       0.46       0.34
      7.43       0.95      -0.07
      7.08       0.09       0.10
      7.67       0.23       0.17
      7.42       0.44       0.06
      7.60       0.64      -0.11
      7.60       0.68       0.27
      7.59       0.24       0.38
      7.51       0.12       0.28
      7.89       0.06       0.43
      7.84       0.11      -0.16
      8.04      -0.42      -0.10
      7.95       0.17       0.13
      7.05      -0.04       1.00
      6.83       0.01       0.16
      7.33      -0.59      -0.10
      6.87      -0.40       0.34
      7.28      -1.23      -0.04
      7.24      -0.74       0.45
      7.06      -0.28       0.62
      7.32       0.12       0.13
      6.91       0.06       0.35
      7.21       0.26       0.15
      7.44       0.52      -0.09
      7.44       0.83      -0.41
      6.81       0.32       0.13
      6.82       0.10       0.29
      7.05       0.05      -0.07
      7.52       0.07      -0.16
      7.43       0.17      -0.23
      7.64       0.10      -0.13
      7.90      -0.20      -0.55
      7.86      -0.21      -0.42
      7.61       0.08      -0.59
      7.12       0.51      -0.37
      6.85       0.41       0.34
      6.92       0.19       0.03
      6.98      -0.03       0.33
      6.52      -0.60       0.48
      6.86      -0.21       0.88
      7.13      -0.03       0.39
      7.06       0.37       0.16
      6.86       0.25       0.38
      6.91       0.33       0.72
      6.67       0.10       0.85
      6.36      -0.07       0.81
      6.56      -0.06       0.52
      7.10       0.13       0.29
      7.49       0.41       0.32
      7.69       0.10      -0.09
      7.79      -0.04      -0.29
      7.78      -0.15      -0.05
      7.70       0.69      -0.07
      7.86       0.95       0.03
      7.79       0.31      -0.10
      7.80       0.02      -0.26
      7.84      -0.02       0.25
      7.33       0.03      -0.38
      7.12       0.08      -0.06
      7.11       0.06       0.26
      7.52      -0.14       0.04
      7.68      -0.44      -0.20
      7.52      -0.03      -0.34
      7.02      -0.17       0.11
      7.52      -0.40      -0.14
      7.11      -0.60       0.70
      6.40      -0.43       0.41
      6.53      -0.06       0.48
      7.12      -0.02       0.28
      7.24      -0.15       0.08
      7.19       0.35      -0.03
      7.56       0.76      -0.27
      7.66       0.53      -0.20
      7.38       0.47      -0.06
      6.89      -0.25       0.37
      7.21      -0.56       0.15
      7.50      -0.22       0.69
      7.83      -0.02       0.20
      7.90      -0.29      -0.10
      8.48      -0.10      -0.52
      8.14       0.66      -0.93
      7.58       0.65       0.03
      7.93       0.10      -0.17
      7.86       0.02      -0.25
      8.31      -0.31      -0.39
      7.95      -0.42      -0.02
      7.73      -0.08      -0.09
      7.90      -0.03       0.02
      7.12       0.39       0.24
      7.27       0.54      -0.24
      7.22       0.27       0.15
      7.12       0.30       0.27
      6.86       0.15       0.59
      6.61       0.45       0.53
      7.60       0.16       0.26
      7.55       0.24      -0.44
      7.89       0.13      -0.63
      8.06      -0.28      -0.37
      8.16       0.04      -0.64
      7.59       0.37      -0.18
      7.91       0.65      -0.16
      8.08       0.23      -0.36
      7.57       0.77       0.07
      7.53       0.36       0.12
      7.22       0.12       0.03
      7.22       0.43       0.00
      7.29       0.01      -0.05
      7.03      -0.02       0.26
      7.34      -0.25       0.30
      7.21      -0.04       0.03
      7.25       0.25       0.15
      7.80      -0.06      -0.13
      7.94      -0.77       0.03
      7.77      -0.82       0.03
      7.82      -0.18       0.20
      7.49       0.13       0.31
      7.69       0.25       0.26
      7.68       0.28      -0.25
      8.08      -0.05      -0.24
      7.72       0.79      -0.10
      7.35       0.83      -0.01
      7.64      -0.14       0.35
      8.19      -1.12      -0.01
      7.76      -0.58      -0.21
      7.94      -0.34       0.17
      8.04       0.04      -0.57
      8.18       0.26       0.11
      7.88       0.25      -0.23
      8.57       0.12      -0.41
      8.92      -0.23      -0.20
      8.01       0.27      -0.35
      8.27      -0.37      -0.62
      7.73      -0.05       0.46
      7.36      -0.28       0.25
      7.14      -0.23       0.38
      7.64       0.54       0.69
      7.74       0.59       0.10
      7.28       0.40      -0.26
      7.34      -0.26       0.26
      7.61      -0.25       0.35
      7.54       0.17       0.14
      7.58       0.33       0.15
      7.90       0.06      -0.05
      7.63       0.17      -0.15
      7.23       0.07       0.10
      7.29      -0.19      -0.25
      7.68       0.08      -0.33
      7.89       0.51      -0.12
      7.58       0.74       0.38
      7.51       0.89      -0.13
      7.89       0.05      -0.10
      7.76       0.23      -0.23
      8.22       0.05      -0.16
      7.81      -0.06      -0.27
      7.65      -1.09      -0.11
      7.99      -0.02      -0.50
      7.31       0.10       0.21
      7.42       0.35       0.02
      8.74       0.19      -0.03
      7.90      -0.62       0.59
      8.30      -0.89       0.04
      8.27      -1.03      -0.13
      7.66       0.09      -0.07
      7.49       0.52       0.47
      8.08       0.10       0.21
      8.02       0.36      -0.38
      6.98       0.90       0.03
      7.84      -0.04       0.10
      8.22      -0.47      -0.05
      7.78      -1.23       0.12
      7.63      -0.49       0.41
      7.60       0.08       0.26
      7.71       0.11       0.28
      8.27      -0.13      -0.08
      8.59       0.05      -0.17
      8.11      -0.11       0.18
      7.97       0.01      -0.22
      8.45       0.30      -0.09
      7.58       0.07      -0.20
      7.74       0.51       0.32
      7.88       0.65      -0.22
      7.37       0.29       0.45
      7.04      -0.26       0.63
      7.70       0.34       0.26
      7.67      -0.17       0.07
      7.46      -0.25       0.31
      6.73      -0.53       0.12
      6.86      -0.32       0.00
      7.58      -0.54      -0.08
      8.01       0.23       0.03
      7.87       0.01      -0.32
      7.54       0.14      -0.15
      7.45      -0.36      -0.30
      7.71       0.07      -0.48
      7.55       0.43       0.10
      7.72       0.21       0.00
      7.63       0.24      -0.07
      7.42      -0.17       0.02
      7.78      -0.18      -0.25
      8.07      -0.14      -0.21
      8.15      -0.00      -0.43
      7.41      -0.56       0.37
      7.83      -0.08       0.20
      7.95       0.19      -0.41
      7.72       0.11      -0.20
      8.15      -0.60      -0.51
      8.31      -0.87      -0.67
      8.83      -1.15      -0.92
      8.91      -0.90      -0.65
      8.58      -0.22      -0.54
      8.99       0.14      -0.30
      9.05       0.27      -0.10
      8.40       0.30      -0.31
      7.65       0.92      -0.16
      7.87      -0.03      -0.32
      7.91      -0.12      -0.11
      8.18      -0.35       0.13
      7.56      -0.50       0.38
      7.73       0.25       0.24
      7.82      -0.05      -0.05
      8.42      -0.49       0.07
      8.12       0.11       0.12
      7.76       0.15       0.39
      8.02       0.09      -0.07
      7.98       0.61       0.31
      7.24       0.11      -0.09
      7.38       0.48       0.14
      7.66       0.42       0.17
      7.48      -0.06       0.47
      7.34       0.25       0.15
      7.66       0.20      -0.06
      7.74      -0.43       0.26
      7.58      -0.16       0.02
      7.84      -0.13      -0.11
      7.37      -0.75      -0.35
      7.75      -0.79       0.18
      8.37       0.09      -0.00
      7.80       0.26       0.05
      7.63       0.51      -0.13
      7.19       0.19      -0.64
      7.18      -0.02      -0.09
      6.73       0.32       0.37
      7.24      -0.53      -0.15
      7.40       0.04      -0.17
      8.15       0.11      -0.61
      7.75      -0.02      -0.22
      7.85      -0.21       0.03
      8.00       0.13       0.18
      6.86      -0.72       0.69
      7.45       0.27       0.13
      7.55       0.22      -0.40
      7.44      -0.36       0.02
      7.39      -0.64       0.13
      7.72      -0.48       0.29
      6.92      -0.66       0.32
      7.33      -0.69      -0.23
      7.93      -0.44       0.09
      7.96       0.79      -0.11
      7.84       0.34      -0.06
      8.15       0.36      -0.47
      8.37       0.41      -0.41
      8.51       0.22      -0.63
      8.29       0.43      -0.23
      7.76       0.15       0.03
      4.51      -0.19      -0.01
      4.27       0.46       0.52
      4.40      -0.37       0.25
      4.54      -0.31       1.17
      4.82       0.14       0.30
      4.79      -0.28       0.39
      5.77       0.14       0.03
      5.99       0.85       0.44
      5.98       0.46       0.40
      6.05       0.23       0.25
      7.65       0.52       0.06
      7.78       0.08       0.11
      7.41      -0.03       0.61
      7.50       0.02       0.25
      7.70      -0.13       0.27
      7.62       0.13       0.08
      7.40      -0.43       0.14
      7.36      -0.10      -0.30
      7.28      -0.08       0.89
      7.55       0.30       0.22
      7.06       0.46       0.14
      7.13       0.31      -0.39
      7.16       0.50       0.06
      7.50       0.42      -0.11
      6.89       0.27       0.06
      6.31      -0.27       0.53
      6.31      -0.58       0.08
      6.48      -0.22      -0.33
      6.83       0.04      -0.11
      7.38       0.44      -0.12
      7.24       0.54      -0.08
      6.72      -0.04       0.26
      7.02       0.18       0.48
      7.52      -0.13      -0.21
      8.06       0.36      -0.46
      6.80      -0.19       0.50
      7.03      -0.81      -0.17
      6.61      -0.85       0.29
      6.58      -0.85       1.09
      6.81       0.20       1.18
      7.17       0.31       0.23
      6.96       0.02      -0.40
      7.59       0.07      -0.66
      7.69       0.30      -0.37
      7.83       0.23      -0.07
      7.87       0.14      -0.45
      7.83       0.01      -0.03
      4.66       0.18       0.53
      3.54      -0.26       0.65
      3.18      -0.38       0.38
      2.79      -0.17       0.73
      2.98      -0.08       0.65
      2.94       0.28       1.00
      2.97       0.69       0.71
      3.26       0.70       0.41
      3.71       0.81       0.57
      4.20       0.21       0.38
      7.56       0.36       0.51
      7.61       0.38       0.45
      7.43       0.15       0.54
      7.54      -0.32       0.37
      8.06      -0.23       0.14
      7.77      -0.34       0.12
      7.45      -0.06      -0.17
      7.43      -0.61      -0.18
      7.34       0.17      -0.34
      7.00       0.41       0.71
      7.07       0.09       0.30
      6.91      -0.00       0.18
      6.91       0.06       0.01
      7.21       0.11      -0.09
      7.26       0.14       0.49
      7.13       0.21       0.12
      6.99      -0.04       0.46
      6.62      -0.98      -0.09
      6.58      -0.20       0.01
      6.72      -0.08      -0.19
      7.41      -0.12       0.15
      6.68       0.29       0.30
      7.07      -0.22       0.07
      7.14      -0.17       0.46
      7.64       0.50      -0.39
      6.98      -0.11       0.61
      7.22      -0.25       0.67
      7.04      -0.14       0.03
      7.64       0.53       0.17
      6.82      -0.23       0.61
      6.93       0.18       0.30
      6.86       0.20       0.23
      6.95       0.18       0.16
      6.51       0.19       0.10
      6.49       0.25       0.08
      6.60      -0.18       0.29
      6.61      -0.32       0.55
      4.25      -0.20       0.66
      3.63      -0.23       0.33
      3.90      -0.15       0.14
      4.06      -0.08       0.70
      3.94      -0.48       0.58
      3.64       0.10       0.97
      4.32       0.24       0.58
      3.99       0.18       0.55
      4.19       0.01       0.55
      4.57      -0.00       0.31
      7.39       0.20       0.45
      7.72       0.15       0.29
      7.39      -0.10       0.18
      7.59      -0.42       0.06
      7.78      -0.10       0.06
      8.50      -0.61       0.11
      7.54      -0.03      -0.26
      7.32      -0.03      -0.25
      6.64       0.19       0.30
      6.86       0.22       0.46
      7.17      -0.19       0.20
      7.29      -0.15       0.17
      7.72      -0.18      -0.09
      7.25       0.38      -0.23
      7.46       0.51      -0.27
      6.99       0.11       0.50
      6.55       0.42       0.52
      6.87      -0.66       0.14
      7.38      -1.20      -0.03
      7.82      -0.50      -0.73
      7.27       0.39      -0.16
      6.98       0.22      -0.07
      7.55       0.13      -0.15
      7.52       0.37       0.12
      7.39      -0.56      -0.22
      6.56      -0.45      -0.02
      7.02      -0.67      -0.24
      6.91      -0.68       0.05
      6.88      -0.45       0.07
      7.35      -0.34       0.06
      7.28       0.15       0.41
      6.70      -0.04       0.35
      6.72      -0.07       0.08
      6.50       0.48       0.26
      6.70      -0.21       0.65
      6.61      -0.29       0.67
      7.01      -0.64       0.07
      5.02      -0.69       0.05
      3.91      -0.65      -0.17
      3.65      -0.55      -0.04
      3.90      -0.57      -0.05
      3.80      -0.04       0.50
      3.73       0.10       0.42
      3.79       0.04       0.51
      4.01       0.18       0.58
      4.43      -0.02       0.34
      4.34       0.08       0.27
      7.98       0.39      -0.36
      7.77       0.50      -0.20
      7.77       0.28      -0.08
      7.02       0.03       0.30
      7.32      -0.48       0.56
      7.52      -0.08       0.60
      7.01      -0.02      -0.03
      7.29       0.88      -0.17
      7.33       0.59       0.01
      7.76      -0.25      -0.02
      7.12      -0.44      -0.47
      6.70      -0.85       0.90
      7.20       0.19       0.35
      7.32       0.24       0.44
      8.04       0.39       0.27
      7.59       0.45      -0.07
      8.53       0.46      -0.75
      7.63      -0.65      -0.71
      6.66      -0.87      -0.03
      6.02      -0.74       0.48
      5.94      -0.55       0.80
      7.08       0.62       0.41
      7.08       0.49       0.12
      7.69       0.18      -0.30
      7.47      -0.20      -0.54
      6.97      -0.45       0.28
      7.01      -0.52      -0.01
      6.36      -0.44       0.44
      6.00      -0.54       0.15
      5.80      -0.65       0.40
      6.51      -0.34       0.28
      6.60      -0.24       0.18
      6.79      -0.20       0.17
      6.59       0.28       0.02
      6.69      -0.16      -0.05
      6.78      -0.11      -0.48
      7.24      -0.59      -0.47
      3.84      -0.35       0.28
      2.85      -0.59       0.45
      3.68      -0.39       0.49
      3.88      -0.09       0.44
      4.25      -0.08       0.37
      4.59      -0.38       0.53
      4.98      -0.09       0.42
      5.44      -0.06       0.10
      5.37       0.07       0.21
      4.84       0.21      -0.02
      7.72      -0.42      -0.38
      7.89      -0.13      -0.27
      8.51       0.29      -0.29
      8.40       0.02      -0.21
      8.39       0.28      -0.04
      7.54       0.33       0.07
      7.47      -0.01       0.07
      7.65      -0.19       0.20
      8.09       0.03      -0.20
      7.54      -0.31      -0.01
      7.52      -0.28      -0.81
      6.99       0.11       0.84
      6.45       0.22       0.38
      6.72       0.18       0.81
      6.82       0.03       0.49
      7.37       0.55       0.19
      7.90      -0.50      -0.42
      7.90      -0.23      -0.40
      6.72       0.34      -0.22
      7.55       0.08       0.13
      7.11      -0.02      -0.63
      7.37      -0.27       0.43
      6.81      -0.02       0.31
      7.37      -0.33      -0.21
      7.61       0.04       0.27
      6.96       0.21      -0.36
      6.87      -0.12      -0.14
      7.07      -0.72       0.48
      6.81      -0.41       0.58
      7.36      -0.62       0.49
      7.81      -1.07       0.25
      7.65      -1.24       0.12
      7.82      -0.56       0.09
      7.36      -0.57       0.51
      7.03      -0.59       0.15
      6.79       0.00      -0.60
      6.62       0.72      -0.29
      7.23      -0.41      -0.03
      7.81      -0.72       0.04
      7.54      -0.32       0.01
      7.25      -0.32       0.32
      7.13      -0.53       0.34
      7.31      -0.45       0.21
      7.45      -0.89      -0.10
      7.11       0.10      -0.40
      7.07      -0.13      -0.70
      7.09      -0.34      -0.33
      7.76      -0.35      -0.20
      6.96      -0.05      -0.33
      6.53      -0.07      -0.04
      7.20       0.44       0.27
      7.14      -0.10       0.12
      7.52      -0.13      -0.11
      8.21      -0.33      -0.12
      8.29       0.09      -0.49
      8.06       0.23      -0.43
      7.29      -0.54       0.26
      8.10      -0.72      -0.73
      7.63       1.00       0.62
      6.79       0.28       0.42
      7.72      -0.77      -0.03
      7.11      -0.49       0.35
      7.42      -0.70       0.32
      7.90      -0.32       0.32
      7.85      -0.54       0.27
      7.84       0.55      -0.65
      7.75       0.50      -0.63
      7.38       0.47       0.27
      6.70       0.74      -0.08
      7.11       0.35       0.14
      6.73       0.28       0.93
      6.61      -0.14       0.71
      7.49       0.08      -0.30
      7.51       0.06      -0.63
      7.77      -0.36      -0.25
      8.31      -0.54       0.15
      8.31      -0.28      -0.20
      7.91      -0.61      -0.12
      7.49      -0.86       0.46
      6.98      -0.49       0.68
      6.89      -0.11       0.13
      6.92      -0.08      -0.59
      7.13       0.80      -0.93
      7.41       0.15      -1.51
      7.67      -0.41      -1.69
      7.71      -0.29      -0.58
      7.66      -0.79       0.29
      7.53      -0.37       0.25
      8.02      -0.59       0.34
      8.14      -0.71      -0.22
      7.38      -0.51       0.53
      7.11      -0.74       0.09
      7.49      -0.36      -0.20
      7.64      -0.49      -0.17
      7.11      -0.17       0.16
      7.06      -0.04      -0.00
      6.57       0.04       0.36
      6.56      -0.15       0.53
      6.19      -0.10       0.74
      6.73      -0.16       0.25
      6.75      -0.12      -0.31
      6.61       0.08       0.72
      6.14       1.00       0.33
      7.27      -0.54       0.02
      7.73      -0.11       0.37
      7.79       0.52       0.32
      8.00       0.20       0.30
      6.94      -0.19      -0.13
      7.13      -0.34      -0.33
      6.96      -0.45       0.09
      7.08      -0.91       0.88
      6.82      -0.32       0.59
      6.44      -0.09       0.25
      6.78       0.55       0.17
      7.36       0.73       0.23
      7.20       0.97       0.10
      7.63       0.53      -0.13
      6.91       0.81      -0.07
      7.33       0.33      -0.18
      7.57      -0.17      -0.50
      7.90      -0.15      -0.40
      7.96       0.11      -0.54
      8.30      -0.03      -0.26
      8.75      -0.22      -0.25
      8.66       0.01       0.13
      8.76      -0.30      -0.32
      7.73       0.37       0.09
      8.07      -0.41       0.12
      8.19      -0.06       0.19
      7.93       0.09      -0.39
      8.04      -0.43      -0.52
      8.03      -0.09      -0.59
      8.17       0.22      -0.61
      8.22       0.24      -1.04
      8.48      -0.95      -0.83
      8.06      -0.32      -0.50
      8.15       0.01       0.12
      7.29       0.05       0.13
      8.17      -0.48      -0.01
      7.81      -0.53      -0.25
      7.59      -0.70       0.02
      7.60       0.10      -0.17
      6.90       0.28       0.20
      7.02       0.23       0.10
      6.61      -0.16       0.37
      6.76       0.11       0.76
      7.53      -0.96       0.40
      7.17      -0.12       0.51
      7.37       0.29      -0.34
      7.28      -0.32       0.42
      7.83      -0.95      -0.34
      7.94      -0.69      -0.13
      8.18      -1.01       0.20
      8.32      -0.38      -0.35
      8.49      -0.35      -0.22
      7.84       0.01      -0.46
      6.99      -0.18      -0.25
      7.54      -0.75       0.65
      6.71       0.17       0.68
      6.87      -0.84       0.48
      6.95      -0.39       0.69
      7.08      -0.30       0.18
      7.90       0.23      -0.32
      7.30       0.03       0.34
      7.68       0.71       0.55
      7.63       0.53       0.17
      7.97      -0.55      -0.81
      8.08      -0.23      -0.53
      8.48      -0.61       0.17
      8.25      -0.18       0.02
      8.65      -0.58       0.26
      8.02       0.11       0.23
      7.84      -0.12      -0.08
      8.64      -0.23      -0.27
      8.82      -0.05       0.28
      7.51      -0.42       0.59
      7.67      -0.22      -0.49
      7.41      -0.14      -0.18
      7.24      -0.32       0.54
      8.01       0.25      -0.63
      7.60      -0.55      -0.34
      7.48      -0.49      -0.45
      8.26      -0.23      -0.68
      8.43       0.36      -0.30
      8.79      -0.12       0.34
      8.28      -0.42      -0.10
      7.70      -0.33      -0.48
      7.12      -0.11       0.35
      6.85      -0.13      -0.03
      7.23       0.24      -0.14
      6.96       0.36       0.41
      7.03      -0.52       0.61
      7.44      -1.03       0.33
      7.61      -1.01      -0.11
      7.43      -0.13       0.39
      7.92       0.03       0.07
      7.83      -0.48      -0.29
      7.80      -0.56       0.16
      7.68      -1.01      -0.35
      7.74      -1.57       0.06
      7.77      -0.61      -0.15
      8.50      -0.20      -1.08
      8.30      -0.20      -0.78
      8.53       0.08      -0.89
      8.37       0.01      -0.79
      7.43       0.18       0.71
      7.77      -0.44       0.45
      7.26      -0.53       0.31
      7.51       0.01      -0.21
      7.35       0.24       0.25
      7.20       0.42       0.50
      7.58       0.41       0.21
      8.00       0.12       0.23
      8.61      -0.00      -0.78
      8.70       0.03      -0.78
      8.51      -0.02      -0.48
      8.72      -0.55      -0.42
      8.51      -0.44      -0.43
      8.66      -0.12       0.11
      8.53      -0.76       0.31