# vtk DataFile Version 3.0
Low resolution, disturbed wind of YZ Slice at time = 51 seconds.
ASCII
DATASET STRUCTURED_POINTS
DIMENSIONS     1    26    12
ORIGIN    1252.00     635.00      15.00
SPACING      30.00      30.00      30.00
POINT_DATA             312
VECTORS DisYZ float
      5.76       0.40       0.20
      5.71       0.91       0.09
      6.89      -0.31      -0.14
      4.90      -0.89       0.24
      5.05      -0.59       0.18
      6.03      -0.69       0.04
      6.67      -0.17      -0.24
      4.81       0.88       0.85
      5.37       0.73      -0.32
      4.37       0.40      -0.02
      4.49       0.16      -0.02
      6.29      -1.05       0.12
      4.79      -0.91      -0.05
      5.44       0.84      -0.03
      5.79       0.66      -0.35
      5.37       0.59       0.11
      4.38      -0.64      -0.16
      4.57       0.08       0.21
      5.75       0.57      -0.34
      5.79       0.46       0.00
      4.47       0.05       0.43
      4.95      -0.37      -0.00
      6.44       0.11       0.03
      7.11       0.29      -0.42
      6.24       0.52       0.59
      6.67       0.47       0.10
      7.55       0.49       0.28
      7.26       0.11      -0.69
      6.60       0.73      -0.02
      6.70       0.38       0.08
      4.80      -0.17       0.31
      6.52       0.01      -0.06
      7.49      -0.26      -0.46
      7.78       0.27      -0.10
      7.83       0.53       0.01
      6.20       0.68       0.36
      5.59       0.36       0.03
      4.35      -0.33       0.75
      4.37      -0.23       0.08
      3.85      -0.48       0.40
      6.46      -0.74       0.18
      6.91      -0.56       0.28
      6.56      -0.91       0.06
      7.32      -0.14       0.40
      8.17      -0.10       0.09
      7.23      -0.04       0.56
      7.50       0.11      -0.00
      7.08      -0.17       0.19
      7.33      -0.43       0.02
      7.15      -0.31      -0.34
      5.08      -0.02       0.58
      7.62       0.23       0.11
      8.62       0.26       0.09
      8.02      -0.03      -0.18
      8.04       0.51      -0.01
      7.97       0.65      -0.17
      6.21      -0.01       0.42
      7.07       0.25      -0.24
      7.57       0.12      -0.06
      8.64      -0.21      -0.29
      8.71      -0.13      -0.30
      7.88       0.49       0.20
      5.44       0.37       0.11
      2.29       1.11       1.26
      3.88      -0.09       0.72
      3.77      -0.19       0.50
      5.22      -0.60       0.65
      7.39      -0.80      -0.03
      7.91      -0.62       0.21
      7.72       0.03       0.10
      8.75      -0.26      -0.24
      7.50      -0.06       0.39
      8.05      -0.30       0.52
      7.93      -0.10       0.03
      7.91      -0.04       0.45
      8.18      -0.18       0.46
      8.78      -0.33       0.55
      8.90       0.24       0.44
      8.44      -0.37       0.21
      7.85      -0.24      -0.30
      7.70      -0.45      -0.02
      7.93       0.17      -0.40
      6.50       0.27       0.47
      7.66       0.65       0.20
      7.54       0.65      -0.19
      8.48       0.50      -0.59
      8.47      -0.02      -0.23
      7.99      -0.30       0.09
      6.01       0.03      -0.01
      3.90      -0.14       0.79
      4.50       0.07       0.62
      4.01       0.11       0.43
      5.20       0.31       0.47
      7.54      -0.32      -0.11
      8.32      -0.43       0.29
      9.02      -0.53      -0.29
      9.32       0.04       0.01
      7.81       0.22       1.00
      7.78       0.30       0.66
      9.46      -0.15       0.15
      8.63       0.34       0.64
      7.84       0.33       0.65
      7.15       0.25       0.68
      9.16       1.01       0.20
      8.39      -0.29      -0.01
      8.10      -0.47      -0.38
      8.12      -0.21      -0.43
      8.29      -0.01       0.02
      7.40       0.51       0.38
      7.50       0.36       0.13
      8.02       0.78       0.01
      8.71       0.05       0.10
      8.71       0.05      -0.11
      8.60      -0.07      -0.04
      6.76      -0.20       0.28
      5.52       0.26      -0.19
      4.15      -0.30       0.74
      4.37      -0.34       0.66
      6.40      -0.28       0.22
      7.42      -0.09       0.26
      8.46      -0.30       0.39
      9.44      -0.50      -0.28
      9.59      -0.59      -0.43
      7.83      -0.13       0.72
      8.69       0.33       0.58
      9.72      -0.07      -0.02
      9.63       0.45       0.50
      9.51       0.54       0.15
      9.23       0.53       0.72
      9.61       0.48       0.10
      8.90      -0.07       0.54
      8.82       0.05      -0.25
      8.24      -0.12      -0.34
      8.67      -0.38       0.06
      8.37      -0.72       0.45
      8.55      -0.32      -0.10
      8.94      -0.34       0.19
      8.85      -0.08       0.04
      8.93       0.03      -0.01
      9.26      -0.11      -0.20
      8.17      -0.29      -0.28
      7.10      -0.32      -0.22
      6.34       0.07       0.75
      6.60      -0.00       0.52
      7.69      -0.27       0.35
      8.46      -0.31       0.43
      8.81       0.18       0.33
      9.31       0.26       0.07
     10.18      -0.46      -0.74
     10.07      -0.20      -0.33
      9.19       0.11      -0.01
      9.61       0.62      -0.11
      9.88       0.42       0.20
      9.95       0.47       0.57
      9.73       0.42       0.58
      9.10       0.59       0.59
      8.79      -0.60       0.49
      8.50      -0.69      -0.37
      8.95      -1.12      -0.18
      8.91      -1.01       0.12
      8.47      -0.47      -0.34
      8.78      -0.13      -0.39
      9.43      -0.26      -0.41
      9.26      -0.34      -0.07
      8.97      -0.24      -0.16
      8.49      -0.66      -0.01
      8.81      -0.41      -0.30
      8.43      -0.43      -0.21
      8.72      -0.84       0.03
      8.28      -0.56       0.47
      8.43      -0.41       0.47
      9.10      -0.03       0.08
      9.24       0.29       0.26
      9.27       0.86       0.23
      9.41       0.70      -0.05
     10.33      -0.54      -0.48
     10.06      -0.44      -0.15
     10.15       0.07      -0.53
      9.37       0.51       0.25
      9.57       0.20       0.37
      9.49      -0.14       0.48
      9.33       0.01       0.55
      8.24      -0.88       0.56
      8.89      -1.07      -0.36
      8.54      -0.15      -0.20
      8.85      -0.38      -0.04
      9.33      -0.55      -0.39
      9.22      -0.09      -0.29
      9.39      -0.33       0.01
      9.48      -0.38      -0.14
      9.08      -0.44      -0.19
      8.92      -0.35      -0.25
      9.19      -0.40      -0.03
      9.56      -0.52       0.08
      9.09      -1.39       0.35
      9.37      -0.56       0.23
      9.28      -0.23       0.57
     10.20      -0.20      -0.13
      9.49       0.16       0.00
      9.09       0.33       0.44
      9.12       0.73       0.35
     10.18      -0.03      -0.29
      9.86      -0.17      -0.25
     10.13      -0.11      -0.43
      9.45      -0.19      -0.25
      9.32       0.13       0.57
      9.08      -0.50       0.37
      9.44      -0.54       0.56
      9.05      -1.13       0.56
      9.64      -0.59      -0.61
      9.56      -0.45      -0.41
      9.03      -0.28      -0.05
      9.49      -0.16      -0.53
      9.20      -0.14      -0.18
      8.72      -0.10      -0.03
      9.20      -0.44      -0.08
      9.34      -0.53       0.08
      8.80      -0.89      -0.01
      8.70      -0.67       0.24
      9.76      -0.64       0.20
      9.16      -1.00       0.45
      9.22      -0.94       0.10
      9.15      -0.88       0.02
      9.51      -0.17      -0.36
      9.25      -0.31       0.16
      9.12      -0.31       0.04
      9.93       0.23      -0.04
     10.08      -0.71      -0.34
     10.54      -0.39      -0.39
     10.37      -0.41      -0.40
      9.54      -0.40      -0.23
      9.18      -0.58      -0.05
      8.77      -0.36       0.17
      8.65      -0.64       0.27
      9.25      -0.48      -0.28
      9.49      -0.43      -0.51
      9.59      -0.32      -0.25
      9.51      -0.10      -0.52
      9.54      -0.22      -0.22
      9.33      -0.21      -0.07
      8.84       0.18       0.10
      8.88      -0.07       0.07
      9.17      -0.02      -0.18
      9.24      -0.19       0.13
      8.64      -0.47       0.35
      8.60      -0.86       0.23
      9.31      -1.08       0.57
     10.03      -0.94       0.44
      9.69      -0.73       0.35
      9.97      -1.16      -0.54
      9.74      -1.21       0.16
     10.11      -0.92      -0.26
      9.68      -0.52       0.56
     10.00      -0.85      -0.19
     11.08      -0.80      -0.76
     10.84      -0.53      -0.65
      8.87      -0.60      -0.36
      8.88      -0.60      -0.17
      8.64      -0.65       0.25
      8.91      -1.19       0.33
      9.78      -0.39      -0.26
     10.02      -0.02      -0.33
     10.21      -0.05      -0.36
      9.56      -0.02      -0.25
      9.47      -0.32      -0.23
      9.70      -0.25      -0.17
      9.28       0.02      -0.07
      9.30      -0.17       0.42
      9.24      -0.12      -0.36
      9.88      -0.42       0.03
      9.21      -0.42       0.21
      8.80      -0.24       0.86
      8.64      -0.39       0.83
      9.31      -0.82       0.58
      9.58      -0.98       0.35
      9.65      -1.20      -0.32
      9.93      -1.36      -0.45
     10.24      -0.94      -0.47
     10.35      -0.81      -0.27
      9.60      -0.73       0.08
     10.14      -0.53      -0.41
     10.45      -0.60      -0.40
      9.19      -0.70      -0.33
      8.48      -1.17      -0.06
      8.75      -1.03       0.76
      9.13      -0.90       0.61
     10.54      -0.12      -0.32
     10.39      -0.06      -0.27
      9.72       0.13      -0.08
      9.69      -0.00      -0.24
      9.91      -0.22      -0.17
      9.46      -0.32      -0.06
      9.57      -0.35       0.01
      9.07      -0.20       0.23
      9.44       0.05      -0.20
      9.28      -0.41      -0.05
      9.52      -0.38       0.29
      8.94      -0.52       0.95
      9.05      -0.51       0.45
      8.92      -0.23       0.63
      9.09      -0.50       0.22
      9.63      -0.34      -0.00
      9.18      -0.49      -0.17
     10.38      -0.92      -0.67
     10.46      -1.10      -0.28
     10.20      -0.94       0.11
     10.32      -0.75       0.07
     10.31      -0.93      -0.39
      9.34      -0.60       0.06
      8.78      -0.89       0.09
      9.90      -0.78       0.33
      9.67      -1.05       0.63
