# vtk DataFile Version 3.0
Low resolution, disturbed wind of XY Slice at time = 0 seconds.
ASCII
DATASET STRUCTURED_POINTS
DIMENSIONS    47    26     1
ORIGIN     635.00     635.00      85.00
SPACING      30.00      30.00      30.00
POINT_DATA            1222
VECTORS DisXY float
      8.98       0.89       0.65
      8.95       0.88       0.43
      8.14       0.33       0.41
      8.22       0.52       0.89
      7.86       0.46       1.08
      8.03       0.07       0.81
      8.43      -0.02       0.40
      8.87       0.21      -0.05
      9.29       0.31      -0.34
      9.05       0.13      -0.07
      9.10       0.06      -0.00
      8.87      -0.15      -0.05
      8.64      -0.27      -0.29
      8.84       0.40      -0.23
      9.29       0.50      -0.64
      9.49       1.40      -0.28
      9.38       0.77      -0.27
      8.92       0.37       0.23
      8.44       0.30      -0.12
      8.39       0.80      -0.50
      8.26      -0.05      -0.24
      8.02       0.02       0.18
      8.72      -0.34       0.09
      8.55      -0.19       0.11
      8.54       0.08       0.12
      7.97       0.65       0.19
      7.55       0.33       0.51
      7.54       0.26      -0.25
      8.35       0.38       0.14
      6.81      -0.35       0.46
      7.15      -0.76       0.55
      6.63      -0.52       0.42
      6.54      -0.04       0.73
      6.81       0.44       0.73
      6.92       0.68       0.07
      6.92       0.22       0.17
      7.49       0.46       0.36
      7.29       0.34       0.71
      6.72      -0.17       0.43
      6.90       0.43       0.78
      7.22       0.58       0.17
      7.56       0.83       0.04
      7.55       0.90       0.40
      7.38       0.15      -0.07
      7.84      -0.07      -0.30
      7.73       0.34       0.50
      8.39       0.55       0.12
      8.18       0.55       0.32
      7.97       0.40       0.19
      7.97       0.08       0.21
      7.93       0.23       0.17
      7.98       0.33       0.14
      7.79       0.11      -0.21
      7.99       0.19      -0.12
      8.50       0.20      -0.07
      8.41       0.33       0.04
      8.45       0.52       0.12
      7.96       0.33       0.62
      8.21      -0.03       0.23
      8.87      -0.11      -0.27
      8.95       0.32      -0.24
      8.79       0.70      -0.37
      8.84       0.77      -0.25
      8.81       0.75      -0.04
      8.71       0.54      -0.00
      8.46       0.53      -0.12
      8.46       0.56      -0.40
      8.51       0.50      -0.06
      8.36       0.33       0.25
      8.01      -0.26       0.28
      8.33       0.03       0.20
      7.96      -0.12       0.06
      8.15       1.02      -0.36
      8.40       0.47       0.23
      8.58      -0.06      -0.22
      8.21       1.12       0.18
      8.11       0.38      -0.12
      7.26       0.00       0.50
      6.60      -0.42       1.01
      7.09      -0.55       0.03
      6.96      -0.26      -0.52
      7.15       0.11      -0.06
      7.62      -0.16       0.03
      7.85       0.58       0.17
      7.64      -0.44       0.37
      6.94       0.03       0.58
      7.17       0.07       1.17
      7.47       0.65      -0.08
      7.80       0.89      -0.25
      7.60       0.63      -0.01
      7.94       0.38      -0.06
      7.83       0.20      -0.21
      7.12       0.10      -0.09
      6.84       0.35       0.68
      7.46       0.32       0.08
      7.06       0.12      -0.01
      7.15      -0.17       0.24
      7.24      -0.26       0.21
      7.06      -0.24       0.12
      7.38      -0.06       0.26
      7.74       0.33       0.03
      8.45       0.29       0.08
      8.38       0.46       0.31
      7.80       0.05       0.14
      7.97       0.05      -0.21
      8.63       0.12      -0.14
      8.14       0.34      -0.08
      7.47      -0.09       0.24
      7.86       0.06      -0.00
      8.19       0.56      -0.25
      8.33       0.43      -0.11
      8.12       0.60       0.00
      8.76       0.58      -0.26
      8.85       0.39       0.26
      9.09       0.14       0.87
      8.60       0.43       0.40
      7.61       0.07       0.18
      7.50      -0.20      -0.17
      7.31       0.21       0.02
      7.20       0.45       0.68
      7.51       0.35       0.13
      7.21       0.72      -0.04
      6.87       0.48       0.76
      7.73       0.27       0.17
      7.36       0.27       0.06
      7.02      -0.31       0.14
      6.91      -0.68       0.24
      6.92      -0.47       0.32
      7.55      -0.34       0.28
      7.95      -0.20      -0.44
      8.63      -0.17      -0.79
      8.13      -0.17      -0.43
      7.66       0.58       0.13
      8.13       0.07      -0.07
      7.58       0.30      -0.40
      7.46       0.83       0.34
      7.72       0.33       0.22
      7.74       0.73       0.04
      6.69       0.49       0.69
      6.67       0.38       0.74
      6.93      -0.14       0.61
      7.17       0.20      -0.22
      7.03      -0.08       0.28
      6.90      -0.42       0.63
      7.20      -0.26       0.07
      7.38       0.14       0.36
      7.96       0.05      -0.07
      7.80       0.26      -0.08
      7.49       0.46      -0.07
      7.62       0.26      -0.23
      7.86      -0.14      -0.66
      7.51       0.16       0.37
      7.26      -0.33       0.06
      7.72       0.16       0.24
      7.15       0.16       0.34
      7.02       0.17       0.20
      7.46       0.17       0.64
      7.47       0.13      -0.15
      7.62       0.48      -0.06
      7.21       0.35       0.99
      6.98       0.53       0.95
      6.81       0.47       0.34
      7.35       0.26       0.21
      7.74       0.01      -0.13
      8.00       0.15       0.30
      7.72       0.22      -0.18
      7.49       0.75      -0.28
      6.99       0.58       0.14
      7.25       1.13       0.56
      7.39       0.33       0.30
      7.07       0.21       0.53
      7.37       0.15       0.75
      7.74       0.29      -0.01
      7.52      -0.18       0.18
      7.28      -0.50       0.78
      7.42      -0.46      -0.19
      7.82       0.00      -0.49
      8.14      -0.39      -0.44
      8.40       0.05      -0.22
      7.96       0.71       0.00
      8.58       0.82      -0.30
      8.10       0.41       0.11
      7.31       0.12      -0.09
      6.70       0.17       0.24
      6.46       0.48       1.24
      6.63       0.53       1.09
      7.14       0.33       0.29
      7.46       0.01       0.39
      7.17       0.23       0.08
      7.57       0.36      -0.41
      6.99      -0.23      -0.21
      6.15      -0.09       0.45
      6.42       0.24       0.21
      6.96       0.08       0.52
      7.02       0.24       0.36
      7.17       0.54       0.17
      7.14       0.21      -0.20
      6.42       0.30       0.44
      5.98       0.05       0.34
      6.26      -0.08       0.37
      6.56      -0.37       0.61
      7.15      -0.39       0.26
      6.92       0.15      -0.44
      7.47       0.23       0.36
      7.32       0.55       0.53
      7.49       0.41       0.21
      7.43       0.63       0.59
      7.02       0.76       0.78
      7.34       0.62      -0.14
      7.04       0.35      -0.06
      7.34       0.34      -0.02
      7.71      -0.06      -0.25
      7.27       0.18       0.11
      7.41       0.82       0.25
      7.62       1.10       0.25
      7.58       1.27       0.21
      7.87       0.19       0.13
      7.74       0.51      -0.06
      8.59       0.03       0.16
      8.00      -0.01      -0.65
      8.59      -0.09       0.16
      7.40       0.01       0.13
      6.80      -0.05       0.81
      6.97       0.27       0.74
      7.33      -0.21       0.12
      6.94      -0.20       0.22
      7.10       0.38      -0.08
      6.99       0.88       0.17
      6.80       0.58       0.65
      6.67       0.42       0.69
      6.52       0.71       0.20
      7.39       0.22       0.15
      7.57      -0.08       0.01
      7.52      -0.07       0.56
      7.44      -0.17       0.42
      7.00       0.56      -0.05
      6.95       0.55       0.19
      7.47      -0.20      -0.37
      7.49       0.21      -0.34
      7.80       0.19      -0.28
      8.09      -0.08      -0.40
      6.66       0.28      -0.07
      6.58       0.35       0.38
      6.40       0.15       0.68
      6.60      -0.09       0.32
      6.83       0.10       0.28
      7.27       0.01       0.21
      7.19      -0.14       0.18
      6.53      -0.19       0.52
      6.62      -0.06       0.49
      6.88       0.34       0.12
      6.92       0.70       0.44
      6.76       0.84       0.65
      6.54       0.89       0.59
      6.78       0.64       0.29
      7.00       0.27       0.46
      7.38       0.03       0.14
      7.79      -0.11      -0.11
      7.40      -0.26      -0.09
      7.72      -0.16      -0.14
      7.48       0.45      -0.13
      7.63       0.90       0.08
      7.87       0.71      -0.41
      7.99       0.45      -0.04
      8.05      -0.15      -0.21
      7.27      -0.16      -0.11
      6.92      -0.02      -0.08
      7.22       0.20       0.00
      7.20       0.18       0.05
      7.48       0.14      -0.22
      7.74       0.01      -0.42
      7.10       0.08      -0.08
      6.76       0.39       0.39
      6.70       0.44       0.45
      6.71       0.89       0.48
      6.81       0.56       0.30
      6.93       0.36       0.60
      7.47       0.12       0.21
      7.58      -0.18      -0.07
      7.64       0.08       0.01
      8.12       0.08       0.10
      8.41      -0.02      -0.52
      7.04       0.52       0.15
      7.42      -0.31       0.55
      7.71      -0.23       0.35
      7.72      -0.42       0.12
      8.08      -0.36       0.11
      8.13       0.40      -0.12
      8.20       0.58      -0.66
      8.18       0.32      -1.06
      8.23       0.18      -0.56
      7.74       0.00      -0.11
      7.82      -0.40       0.09
      7.50      -0.25       0.09
      7.28       0.13      -0.17
      7.77       0.17      -0.13
      8.04      -0.01       0.00
      8.05       0.26       0.21
      7.52       0.14       0.20
      7.33       0.65       0.34
      7.51       0.37       0.16
      7.27       0.16       0.24
      7.63       0.54       0.01
      8.05       0.38      -0.33
      8.22      -0.21      -0.46
      8.46      -0.33      -0.55
      8.14       0.10      -0.47
      7.78       0.39      -0.32
      7.63       0.82      -0.43
      7.82       0.22      -0.11
      7.96       0.58       0.20
      7.31       0.31       0.19
      7.33      -0.18      -0.01
      7.16       0.07       0.03
      7.17       0.32      -0.09
      7.20      -0.05      -0.23
      7.31       0.08       0.29
      7.46       0.20       0.09
      7.30       0.20       0.12
      7.07       0.73       0.22
      7.26       0.46      -0.07
      7.07       0.53      -0.05
      7.14       0.29       0.40
      7.46       0.55       0.06
      7.76       0.20      -0.01
      7.78      -0.15       0.03
      7.77      -0.03      -0.10
      8.36      -0.12      -0.26
      7.97      -0.24      -0.41
      7.22       0.27       0.50
      7.47      -0.89       0.47
      7.64      -0.82       0.07
      7.88      -0.22       0.07
      7.93       0.06      -0.06
      8.57       0.26      -0.20
      8.49       0.29       0.07
      8.64      -0.34      -0.46
      8.37       0.17      -0.29
      8.83       0.27      -0.46
      8.33      -0.18      -0.16
      7.93      -0.25      -0.01
      7.36      -0.07      -0.14
      7.00      -0.06       0.42
      7.24      -0.09       0.32
      7.56       0.59       0.33
      7.31       0.20       0.02
      7.28      -0.35       0.39
      7.20      -0.15       0.49
      7.46       0.07       0.37
      7.84       0.25      -0.10
      8.07       0.18       0.04
      7.74      -0.27      -0.15
      7.25      -0.26       0.26
      7.29       0.22       0.20
      7.32       0.38      -0.44
      7.50       0.44      -0.02
      7.58       0.33       0.07
      7.97       0.31       0.15
      7.97      -0.01      -0.10
      8.09      -0.01      -0.36
      8.48       0.12      -0.37
      7.57       0.12       0.05
      7.46      -0.17      -0.02
      7.59      -0.35      -0.47
      7.41      -0.06      -0.05
      7.29       0.11       0.05
      7.27       0.55      -0.02
      7.52       0.18      -0.24
      7.74       0.13      -0.09
      7.94       0.07       0.01
      8.17       0.21      -0.21
      8.13      -0.12      -0.34
      8.24      -0.05      -0.40
      7.91       0.05      -0.08
      7.85      -0.24      -0.56
      7.68      -0.37      -0.03
      8.07      -0.44      -0.20
      8.37      -0.88      -0.51
      7.94      -0.31      -0.30
      7.50      -0.13       0.24
      7.89       0.14       0.05
      8.18       0.22       0.01
      8.42       0.24      -0.49
      7.67      -0.12      -0.13
      8.36       0.30      -0.06
      8.77       0.23      -0.12
      8.15       0.21      -0.11
      8.15       0.14       0.32
      7.62       0.44      -0.02
      7.35       0.18       0.43
      7.20      -0.08       0.45
      7.02       0.34       0.39
      7.41      -0.26       0.31
      7.63      -0.46       0.14
      7.40      -0.41      -0.15
      7.28      -0.73      -0.17
      7.48      -0.26      -0.05
      7.86       0.02       0.16
      7.69       0.13       0.11
      7.84       0.19      -0.22
      7.58       0.01      -0.20
      7.72      -0.12      -0.54
      7.49       0.15       0.16
      7.46      -0.12       0.10
      7.68      -0.12       0.04
      7.40      -0.36       0.12
      7.85      -0.24      -0.25
      7.84       0.22      -0.37
      8.03       0.27      -0.03
      7.76      -0.50      -0.05
      7.23      -0.60       0.10
      7.34      -0.04       0.30
      7.60       0.41      -0.01
      7.51      -0.01       0.11
      7.23      -0.20       0.10
      7.40       0.07      -0.28
      7.69       0.13      -0.30
      7.81      -0.09      -0.39
      7.79      -0.07      -0.43
      7.57      -0.16      -0.29
      7.98      -0.05      -0.55
      7.77       0.24      -0.51
      8.37      -0.04      -0.83
      8.76      -0.18      -0.07
      7.81      -0.38       0.21
      7.30      -0.27       0.28
      7.84       0.05       0.39
      8.13      -0.08       0.01
      7.71      -0.14       0.20
      7.99       0.59       0.22
      7.98       0.17      -0.05
      7.76      -0.20       0.07
      7.75       0.42       0.14
      7.78       0.69       0.15
      8.10       0.25       0.15
      7.62       0.36       0.11
      7.14       0.35       0.16
      7.25      -0.17      -0.11
      7.56       0.17       0.02
      7.52      -0.21      -0.14
      7.65      -0.37      -0.17
      7.42      -0.65       0.12
      7.22      -0.75      -0.27
      7.12      -0.51      -0.29
      7.27      -0.46       0.12
      7.67      -0.09       0.50
      7.56       0.13      -0.15
      7.83       0.42       0.05
      7.50       0.36      -0.20
      6.99      -0.05      -0.02
      6.83      -0.23       0.20
      7.22      -0.18       0.24
      7.49      -0.15      -0.26
      7.73      -0.28      -0.13
      7.79       0.08       0.03
      7.81       0.33      -0.19
      7.32       0.30       0.07
      7.05      -0.15       0.13
      7.20       0.13       0.40
      7.34       0.17      -0.05
      7.86      -0.04      -0.28
      7.49      -0.16       0.03
      7.13      -0.25       0.20
      7.02       0.02       0.29
      7.29      -0.44      -0.00
      8.14      -0.18      -0.74
      8.38      -0.16      -0.76
      8.22      -0.25      -0.14
      8.04      -0.09      -0.63
      7.98       0.07      -0.45
      8.63       0.03      -0.37
      8.14       0.14      -0.42
      8.25       0.35      -0.23
      8.24       0.31       0.05
      8.06      -0.36       0.14
      8.14      -0.29       0.13
      7.99      -0.27       0.01
      7.53       0.76      -0.03
      8.05       0.58       0.24
      7.41       0.28       0.42
      7.36       0.67      -0.05
      7.67       0.90       0.12
      4.47       0.41       0.48
      7.39       0.25       0.51
      7.32       0.26       0.25
      7.34       0.07       0.53
      7.54      -0.06      -0.11
      7.26      -0.23       0.11
      7.97      -0.48       0.08
      7.91      -0.31      -0.49
      7.30      -0.02      -0.17
      7.16      -0.40       0.51
      7.11       0.12       0.69
      7.32       0.38       0.39
      7.27       0.36      -0.22
      7.11       0.08      -0.20
      7.08       0.22       0.37
      6.94      -0.06       0.64
      6.69      -0.70       0.18
      6.87      -0.58      -0.36
      7.21       0.09      -0.32
      7.39       0.27      -0.15
      7.48       0.25      -0.40
      7.67       0.23      -0.46
      7.09       0.39       0.19
      7.28       0.29       0.31
      7.45       0.07      -0.27
      7.62       0.29      -0.09
      7.62       0.16      -0.06
      8.06       0.30       0.10
      7.50       0.17       0.48
      7.64      -0.65      -0.02
      7.60      -0.17      -0.28
      7.81      -0.08      -0.63
      8.11      -0.11      -0.59
      8.26       0.01      -0.61
      8.14      -0.10      -0.15
      7.94      -0.17      -0.43
      6.97       0.44      -0.19
      6.91      -0.10       0.53
      7.36       0.10       0.30
      7.19      -0.35       0.02
      6.99      -0.19       0.13
      7.15       0.07       0.21
      7.03       0.35       0.17
      7.19       0.39       0.23
      7.20       0.63       0.38
      7.12       0.80       0.08
      7.46       0.71       0.15
      4.85       0.37       0.83
      7.55       0.09       0.45
      7.56      -0.14       0.36
      7.49       0.62       0.32
      7.41      -0.29      -0.16
      7.43      -0.26      -0.01
      7.56      -0.18      -0.01
      8.03       0.05      -0.63
      7.99      -0.02      -0.27
      7.87       0.07       0.27
      6.98       0.14       0.30
      6.75       0.10       0.13
      7.19       0.21      -0.05
      7.09      -0.00       0.12
      7.34       0.33       0.19
      7.60       0.22       0.06
      7.21      -0.23      -0.35
      6.28      -0.19       0.50
      6.01      -0.50       0.17
      6.19      -0.55       0.04
      6.92      -0.64       0.00
      7.28       0.16      -0.23
      6.49       0.62       0.03
      7.16      -0.03      -0.08
      6.96       0.05       0.12
      6.94       0.09      -0.16
      6.83       0.12       0.57
      7.18      -0.06       0.56
      8.10      -0.28      -0.09
      7.46      -0.45      -0.36
      7.59      -0.15      -0.45
      8.15      -0.54      -0.81
      7.26      -0.15      -0.17
      6.96      -0.26      -0.08
      7.21       0.03       0.14
      6.51       0.33       0.07
      6.85      -0.11       0.12
      7.36      -0.38       0.29
      7.21      -0.36       0.21
      6.78      -0.27       0.19
      6.68      -0.19       0.32
      6.81       0.17       0.43
      6.83       0.31       0.64
      7.07       0.25       0.30
      7.40       0.53       0.24
      7.42       0.52      -0.04
      7.66      -0.03       0.08
      5.47       0.09       0.54
      8.10       0.43       0.21
      7.79       0.07       0.30
      8.13      -0.46       0.23
      8.09       0.18      -0.30
      7.69      -0.54      -0.12
      7.51      -0.56      -0.02
      7.70       0.20      -0.34
      6.81       0.10       0.15
      6.88       0.44       0.30
      7.28       0.07       0.31
      7.59      -0.08      -0.18
      7.61      -0.36       0.17
      7.84       0.20      -0.15
      7.84       0.29       0.21
      6.74       0.27      -0.34
      6.56       0.18       0.35
      6.76      -0.23       0.40
      7.02      -0.29       0.49
      7.52      -0.19      -0.79
      7.34      -0.55      -0.41
      7.02      -0.15       0.43
      7.62       0.26      -0.21
      7.32       0.58      -0.34
      7.19       0.77       0.14
      7.93       0.11      -0.28
      7.82      -0.06      -0.70
      8.29       0.09      -0.72
      7.72       0.11       0.09
      7.01      -0.02       0.24
      7.11      -0.48      -0.09
      6.56      -0.23      -0.44
      6.54      -0.02       0.05
      6.39      -0.09      -0.04
      7.01       0.78       0.37
      6.71      -0.23       0.39
      6.72      -0.67       0.52
      6.61      -0.59       0.28
      6.85      -0.44       0.13
      7.11      -0.48       0.03
      7.29      -0.37      -0.02
      7.59      -0.38       0.10
      7.22       0.25       0.08
      7.15       0.32       0.10
      7.50       0.03       0.44
      7.83       0.42       0.34
      7.78       0.28       0.05
      5.47       0.05       0.23
      8.03       0.67      -0.03
      8.17       0.62       0.04
      7.65      -0.28       0.13
      7.28      -0.58       0.13
      7.31      -0.33       0.17
      7.49      -0.21       0.40
      7.41       0.21       0.13
      7.27       0.24       0.24
      7.57       0.01      -0.01
      7.82      -0.14      -0.33
      6.94       0.15       0.15
      6.31      -0.21       0.75
      6.51      -0.38       0.76
      6.61       0.33       0.28
      6.72       0.46       0.48
      7.24       0.26      -0.10
      7.33      -0.19      -0.13
      7.23      -0.28      -0.38
      6.43      -1.03       0.26
      7.06      -0.13      -0.43
      6.23      -0.17       0.95
      6.74      -0.01       0.46
      6.95       0.22      -0.33
      7.39       0.24      -0.51
      7.72      -0.01      -0.24
      7.71       0.12      -0.76
      6.97      -0.06       0.12
      7.28      -0.23       0.57
      7.47       0.40       0.78
      7.16       0.50      -0.06
      6.72       0.41      -0.26
      6.84       0.29      -0.33
      6.60       0.43       0.40
      6.85       0.68       0.43
      6.99      -0.67      -0.32
      7.32      -0.77      -0.56
      7.31      -0.55      -0.45
      7.14      -0.55      -0.06
      7.31      -0.38       0.06
      7.54      -0.30      -0.09
      7.22      -0.04      -0.09
      7.35       0.10       0.09
      7.81       0.16       0.16
      8.15       0.05       0.21
      7.97       0.10       0.09
      8.06       0.27      -0.12
      5.09      -0.06      -0.41
      8.40      -0.14      -0.51
      8.09       0.26      -0.67
      8.33      -0.11      -0.31
      7.68       0.19      -0.25
      7.47      -0.15      -0.09
      7.40       0.30       0.50
      7.92       0.28       0.11
      8.13       0.06      -0.27
      8.46      -0.32      -0.48
      7.89       0.01      -0.14
      7.63      -0.06       0.20
      6.99       0.29       0.89
      6.57       0.15       0.64
      6.98       0.16       0.37
      7.28       0.38       0.26
      7.78       0.33      -0.67
      8.62      -0.28      -1.25
      8.07      -0.22      -0.81
      8.22       0.10      -0.56
      6.60       0.32      -0.03
      6.41      -0.17      -0.32
      6.74       0.12       0.26
      6.93       0.58       0.28
      7.44       0.23       0.05
      6.96       0.11       0.43
      6.70       0.25       0.39
      7.02       0.05       0.30
      7.01      -0.32       0.16
      6.96      -0.05       0.35
      7.51       0.46       0.00
      6.96       0.67      -0.15
      6.96       0.50      -0.44
      7.14       0.66      -0.29
      7.40       0.54       0.13
      7.01      -0.94       0.05
      6.88      -0.36      -0.10
      6.27      -0.03       0.00
      6.95      -0.11       0.17
      7.18      -0.59       0.16
      7.04      -0.16       0.34
      7.17      -0.13       0.16
      7.64      -0.55       0.18
      7.47      -0.24       0.15
      7.64       0.14      -0.15
      7.70      -0.41      -0.59
      7.70       0.05      -0.74
      7.46      -0.12      -0.27
      7.42      -0.14      -0.04
      6.82      -0.42      -0.00
      6.63      -0.11       0.54
      6.70      -0.04       0.50
      6.82      -0.33      -0.11
      7.36      -0.28       0.01
      7.66      -0.14      -0.46
      7.67       0.03      -0.33
      7.13       0.33       0.23
      7.19       0.66       0.29
      7.56       0.26       0.27
      7.24       0.11       0.57
      7.45      -0.43       0.16
      7.74      -0.22      -0.09
      7.81      -0.19       0.27
      7.93      -0.25       0.35
      7.91      -0.21      -0.42
      7.82      -0.06      -0.77
      7.70       0.41       0.01
      7.41       0.48      -0.01
      7.38      -0.04      -0.25
      7.95       0.42       0.22
      7.41       0.56      -0.05
      6.74       0.07       0.19
      6.41       0.46       0.50
      6.87       0.55       0.38
      6.80       0.12       0.17
      6.43       0.05      -0.07
      6.72       0.06       0.32
      6.83      -0.03       0.28
      7.11       0.07       0.31
      7.19       0.56       0.02
      7.08       0.47      -0.07
      7.63       0.77      -0.19
      7.36      -0.30      -0.48
      7.67      -0.54      -0.74
      7.87      -0.85      -0.55
      7.96      -0.64      -0.67
      7.69      -0.30      -0.03
      7.52      -0.18       0.11
      7.84      -0.26       0.15
      7.78      -0.19      -0.11
      7.39      -0.14       0.04
      7.72      -0.59      -0.27
      8.05      -0.24      -0.37
      7.55      -0.18       0.02
      7.07       0.04      -0.01
      7.24      -0.20       0.42
      6.37       0.22       0.30
      5.77      -0.08       0.33
      6.07      -0.21       0.39
      6.63      -0.48       0.44
      6.98      -0.38       0.16
      6.40       0.36       0.13
      6.40       0.74       0.00
      7.15       0.33      -0.27
      7.67      -0.33       0.11
      7.86      -0.21       0.60
      7.84      -0.02      -0.03
      7.45      -0.44      -0.07
      7.13      -0.18       0.29
      6.77      -0.20       0.64
      7.18      -0.33       0.33
      7.32      -0.37      -0.13
      7.24       0.13       0.30
      7.37       0.28       0.33
      7.78      -0.09      -0.16
      8.55       0.36      -0.85
      8.35       0.33      -0.51
      7.81       0.54       0.18
      7.58       0.62      -0.08
      7.63       0.33      -0.38
      7.45       0.56      -0.18
      7.22       0.40      -0.29
      7.43       0.33      -0.19
      7.53      -0.18      -0.42
      6.97      -0.13       0.16
      7.39      -0.25       0.24
      7.52      -0.14       0.43
      7.40       0.09      -0.04
      7.66       0.18      -0.21
      8.02       0.30      -0.82
      8.33      -0.28      -0.53
      8.44      -0.37      -0.60
      8.54      -0.59      -0.77
      8.39      -0.17      -0.61
      8.07      -0.51      -0.14
      8.52      -0.35      -0.14
      7.61      -0.08       0.09
      6.71       0.37       0.42
      7.21      -0.53       0.02
      7.21      -0.82       0.01
      7.48      -0.23       0.23
      7.07      -0.08      -0.01
      6.97       0.07       0.18
      7.06       0.36       0.71
      6.75       0.39      -0.00
      6.80      -0.25      -0.28
      6.99      -0.24       0.13
      6.79      -0.47       0.61
      7.14      -0.04       0.48
      7.20       0.23       1.01
      7.77      -0.52       0.70
      8.21      -0.54       0.00
      8.06      -0.41       0.01
      8.35      -0.28       0.19
      8.49      -0.20      -0.44
      7.90       0.20      -0.41
      8.15      -0.18      -0.16
      6.88      -0.02       0.58
      6.56       0.09       1.10
      6.88       0.03       0.64
      7.05      -0.32       0.51
      7.45      -0.04       0.29
      7.59       0.18      -0.06
      7.26       0.47      -0.02
      7.53       0.27       0.07
      7.48       0.25       0.37
      7.32       0.22       0.13
      7.35       0.62      -0.13
      7.82       0.48      -0.51
      7.76       0.07      -0.39
      7.47       0.17      -0.04
      7.92       0.01      -0.43
      7.96      -0.07      -0.62
      7.78      -0.45      -0.07
      7.94      -0.30      -0.13
      8.35      -0.15       0.16
      7.74      -0.16      -0.59
      8.40      -0.05      -1.00
      8.03      -0.40      -0.16
      7.78      -0.34      -0.32
      8.22      -0.29      -0.54
      8.17      -0.33      -0.74
      8.25      -0.33      -0.48
      8.58       0.08      -0.02
      8.65      -0.40       0.07
      8.42      -0.39      -0.55
      8.09      -0.21      -0.17
      7.62      -0.12      -0.30
      7.30      -0.08       0.43
      7.10      -0.21       0.34
      7.16       0.22       0.24
      6.64       0.06       0.31
      6.77      -0.53       0.85
      7.45      -1.16       0.50
      7.91      -0.63       0.18
      8.11      -0.46       0.35
      7.60      -0.40      -0.07
      7.47      -0.73      -0.30
      7.96      -0.68      -0.00
      8.02      -0.57      -0.48
      8.70      -0.15      -0.44
      9.07       0.00      -0.64
      8.32       0.24      -0.81
      8.04      -0.30      -0.83
      7.57       0.10      -0.41
      7.51       0.13       0.20
      7.58      -0.08       0.39
      7.35      -0.25       0.04
      7.25      -0.26       0.15
      7.26       0.04       0.36
      7.39       0.12       0.61
      7.35      -0.07       0.33
      7.44      -0.15       0.29
      7.64      -0.09       0.08
      7.97       0.11      -0.31
      8.23       0.20      -0.32
      8.12       0.41       0.07
      7.60       0.15       0.14
      7.62       0.15      -0.06
      7.61      -0.06      -0.33
      7.73      -0.42      -0.32
      8.13      -0.51      -0.29
      8.17      -0.45      -0.24
      7.21      -0.01      -0.09
      7.39       0.57       0.37
      7.78      -0.08      -0.49
      8.10      -0.38      -0.46
      7.89       0.06      -0.51
      7.41       0.16       0.10
      7.97      -0.32       0.24