# vtk DataFile Version 3.0
Low resolution, disturbed wind of XZ Slice at time = 36 seconds.
ASCII
DATASET STRUCTURED_POINTS
DIMENSIONS    47     1    12
ORIGIN     635.00    1000.00      15.00
SPACING      30.00      30.00      30.00
POINT_DATA             564
VECTORS DisXZ float
      5.74       1.30       0.19
      4.81       0.10      -0.40
      4.21       0.50       0.48
      4.33      -0.38       0.20
      4.23      -0.73       0.43
      4.69      -0.48      -0.12
      4.25      -0.05      -0.11
      4.58       0.02       0.01
      5.08       0.75       0.39
      5.49       0.20      -0.52
      5.56      -0.02      -0.91
      5.25       0.68      -0.15
      3.13       0.04       0.11
      3.40       0.50       0.68
      4.31       0.11       0.95
      5.02       0.79       0.18
      5.98      -0.12      -0.59
      6.15      -0.14       0.06
      5.90      -0.32       0.30
      4.08       0.43       0.63
      3.04      -0.35       0.69
      5.00       1.16       0.62
      5.28      -1.25       0.19
      4.03      -0.42       0.39
      4.79      -0.19      -0.29
      4.09      -0.56       0.67
      5.31       0.79       0.24
      4.50       1.13       0.03
      4.89       0.95      -0.39
      5.05       0.39       0.25
      4.87      -0.26      -0.33
      4.60       0.20      -0.61
      5.29       0.72      -0.13
      4.08      -0.62       0.17
      4.45      -0.63      -0.20
      5.06       0.38      -0.21
      4.84       0.42      -0.05
      5.19      -0.05      -0.47
      5.70       0.45      -0.02
      6.19       0.87      -0.77
      6.06       0.13       0.23
      6.03       0.70       0.27
      5.57      -0.56      -0.58
      4.66       0.72       0.51
      5.63       0.11      -0.30
      5.41       0.24      -0.20
      4.51       0.16       0.02
      5.49      -0.43       0.05
      5.46       0.07       0.11
      5.14       0.54       0.55
      6.16      -0.37      -0.27
      5.65      -0.38       0.16
      5.75      -0.10      -0.02
      6.04       0.60       0.37
      5.79       0.74       0.45
      5.86       0.13       0.24
      6.28       0.29       0.20
      6.63       0.60       0.17
      6.07      -0.13       0.11
      1.50      -0.53       0.36
      1.91      -0.05       0.29
      2.78      -0.11       0.04
      3.09       0.08       0.21
      3.35       0.28       0.17
      3.46       0.35      -0.05
      3.78      -0.44       0.52
      3.99      -0.45       0.38
      2.43       0.82       0.60
      6.39      -0.54      -0.07
      6.60      -0.13       0.79
      6.85      -1.16       0.45
      6.57      -0.28       0.34
      6.57      -0.72       0.41
      6.36      -0.55       0.54
      6.66       0.22      -0.46
      6.50       0.02      -0.35
      6.47       1.45       0.74
      6.66       0.86       0.17
      5.85       0.22       0.32
      6.07       0.19      -0.15
      6.77      -0.33      -0.09
      6.54       0.78       0.15
      6.26       1.05       0.41
      5.78       0.24       0.54
      5.63      -0.28      -0.61
      6.46       0.40      -0.80
      6.18       0.84       0.12
      7.55      -0.06      -0.56
      6.93       0.43      -0.36
      6.99       0.39      -0.06
      6.34       0.45       0.45
      6.46       0.10       0.61
      6.77      -0.03      -0.59
      7.07      -0.25      -0.32
      6.85      -0.03       0.67
      7.17      -0.49       0.33
      7.27       0.18      -0.01
      6.86      -0.05       0.54
      6.38       0.09       0.39
      6.45       0.20       0.24
      6.58       0.21       0.37
      6.71       0.34       0.42
      6.75       0.24       0.06
      6.57      -0.21       0.04
      6.32      -0.09       0.36
      6.58      -0.06       0.48
      2.83      -0.13       0.54
      3.39       0.03       0.15
      3.77      -0.04       0.42
      3.83      -0.32       0.48
      3.40       0.01       0.74
      3.84       0.18       0.76
      3.94       0.30       0.56
      3.84       0.20       0.73
      4.30      -0.60       0.49
      7.71      -0.48       0.48
      7.26       0.05       0.39
      7.40      -0.05       0.39
      7.19      -0.45       0.39
      7.46      -0.36       0.20
      8.27      -0.33       0.22
      7.75      -0.25      -0.20
      7.23       0.63      -0.83
      6.29       0.57       0.52
      6.66       0.08       0.46
      7.06      -0.60       0.10
      7.09      -0.02      -0.09
      7.17      -0.35       0.44
      7.29       0.41       0.16
      7.25       0.33       0.23
      6.96       0.28      -0.02
      6.87       0.56       0.41
      6.49       0.08       0.08
      6.84      -1.57       0.17
      7.66      -0.99      -0.57
      7.26      -0.62      -1.03
      6.48       0.76       0.55
      7.02       0.56      -0.18
      7.16       0.43       0.09
      7.30      -0.28      -0.37
      7.07       0.78      -0.09
      7.22      -0.62       0.24
      7.21      -1.25       0.19
      6.80      -0.72       0.44
      7.58       0.40       0.69
      8.14      -0.06       0.39
      7.71       0.37      -0.16
      7.63       0.23       0.46
      6.59       0.04       0.34
      6.75      -0.02       0.33
      6.59      -0.22       0.81
      6.71      -0.52       0.36
      7.02      -0.81       0.38
      7.44      -0.81       0.03
      4.74      -0.71       0.19
      4.49      -0.54       0.90
      4.38      -0.35       0.82
      4.21       0.00       0.88
      4.62       0.27       0.64
      4.36       0.26       1.01
      4.40       0.19       0.36
      4.78       0.68       0.03
      7.60       1.43      -0.10
      8.03       0.81       0.07
      8.10       0.55       0.42
      8.23      -0.39       0.22
      7.89       0.49       0.18
      8.38      -0.16       0.13
      8.54      -0.24      -0.17
      8.42      -0.05      -0.40
      7.56       0.06       0.34
      7.04       0.58       0.31
      7.29       0.51       0.42
      8.31      -0.54       0.13
      7.96      -0.42      -0.21
      8.32      -0.25      -0.18
      7.77       0.06       0.21
      7.39       0.05      -0.05
      7.60       0.41       0.57
      7.78      -0.47      -0.46
      7.78      -0.09      -0.45
      7.76      -0.37      -0.19
      8.01      -0.48      -0.08
      7.66      -0.34       0.19
      7.86      -0.73      -0.01
      8.13      -0.29      -0.56
      8.03      -0.13      -0.20
      7.80       0.36       0.09
      8.16      -0.88       0.31
      7.73      -0.83       0.50
      7.53      -1.20       0.65
      7.23      -1.30       0.61
      7.14      -0.53       0.61
      7.52       0.45       0.62
      6.37      -0.20       0.53
      6.30      -0.19       0.35
      6.60       0.01       0.03
      7.38       0.12      -0.30
      7.35      -0.08       0.06
      7.38      -0.26       0.26
      7.47      -0.39       0.17
      3.04      -0.88       0.49
      3.38      -0.92       0.52
      3.68      -0.55       0.99
      3.36      -0.26       0.84
      3.57      -0.25       0.76
      4.09      -0.08       0.81
      4.36      -0.11       0.59
      4.55      -0.15       0.30
      7.83       0.33      -0.03
      7.99       0.86       0.19
      8.19       0.72       0.16
      8.06       0.82       0.48
      8.69       0.29       0.53
      8.54      -0.18       0.08
      8.47      -0.06      -0.11
      8.13       0.04       0.04
      8.67       0.01       0.35
      8.27       0.34       0.07
      8.50      -0.00       0.10
      8.62      -0.34      -0.54
      8.69       0.11       0.15
      8.15      -0.36       0.15
      7.98      -0.02      -0.04
      7.78       0.02       0.35
      7.74      -0.76       0.74
      8.12      -0.90      -0.04
      7.95      -1.01      -0.21
      8.47      -0.72       0.20
      8.79      -0.54       0.34
      8.69      -0.56       0.22
      8.95      -0.69       0.09
      8.25      -0.76      -0.24
      8.52      -0.43       0.33
      8.83      -0.11       0.03
      8.62      -0.26      -0.13
      8.35      -0.86       0.60
      7.79      -1.15       0.96
      7.79      -0.76       0.72
      7.44      -0.52       0.86
      7.58      -0.07       0.99
      7.44       0.34       0.87
      7.99       0.72      -0.19
      7.50       0.11      -0.61
      8.38       0.03      -0.77
      7.68       0.40      -0.25
      7.24      -0.03       0.31
      7.29       0.17       0.25
      5.63      -0.11       0.01
      5.70      -0.62       0.39
      6.42      -0.08       0.32
      6.51      -0.01       0.43
      6.93       0.28       0.24
      7.10      -0.08      -0.10
      6.46      -0.09       0.30
      6.73      -0.48       0.31
      8.32      -0.61       0.38
      8.17       0.12      -0.05
      8.14       1.09       0.47
      8.21       0.77       0.64
      8.50       0.12       0.42
      8.65      -0.15       0.04
      8.55      -0.31       0.09
      8.83      -0.24       0.02
      9.10      -0.12      -0.03
      8.82       0.22       0.06
      8.90       0.48      -0.35
      8.89       0.42      -0.28
      8.88      -0.48      -0.03
      8.16      -0.24       0.23
      7.98      -0.03       0.32
      8.02       0.33       0.43
      7.99       0.19       0.29
      7.54      -0.01       0.45
      8.10      -0.58      -0.03
      8.23      -0.97       0.25
      8.41      -0.34       0.30
      8.34      -0.45       0.10
      8.49      -0.70      -0.21
      8.52      -0.84      -0.17
      8.67      -0.60       0.21
      8.87      -0.40       0.00
      9.29       0.05      -0.22
      7.99      -0.52       0.09
      8.00      -0.70       0.89
      7.84      -0.77       0.88
      7.71      -0.43       1.17
      8.24      -0.02       1.10
      8.43       0.33       0.55
      8.52       0.05      -0.46
      8.98      -0.50      -1.15
      8.40      -0.21      -0.34
      8.49      -0.16      -0.38
      8.04      -0.17       0.42
      8.03      -0.04       0.66
      8.15       0.07       0.35
      8.26      -0.18       0.32
      8.52      -0.34       0.10
      8.19      -0.97      -0.08
      8.47      -0.89      -0.38
      8.75      -0.54      -0.10
      8.53       0.31       0.45
      8.37       0.17       0.03
      8.93       0.20       0.11
      9.18       0.33       0.22
      9.58       0.17       0.09
      8.80       0.81       0.46
      8.82       0.66       0.73
      9.08       0.24       0.37
      9.45      -0.31      -0.12
      9.15      -0.29       0.10
      9.15      -0.38       0.26
      8.72      -0.24       0.20
      9.13      -0.64      -0.35
      9.20      -0.27      -0.43
      8.49       0.14       0.63
      8.47      -0.27       0.39
      8.36      -0.09       0.06
      8.87       0.02       0.29
      9.34       0.40       0.08
      8.28       0.31       0.60
      8.46      -0.25      -0.30
      8.71      -0.65      -0.35
      9.06      -0.77       0.21
      9.12      -0.53       0.11
      9.32      -0.62      -0.05
      9.24      -0.76      -0.05
      9.54      -1.05      -0.09
      9.77      -1.10       0.05
      9.09      -0.19       0.04
      8.73      -0.50       0.13
      8.56      -0.63       0.74
      8.41      -1.33       0.99
      8.21      -1.70       0.95
      8.95      -1.46       0.97
      8.76      -1.49       0.54
      9.80      -1.72      -0.82
      9.21      -0.65      -0.65
      8.49       0.22       0.06
      8.73      -0.37       0.20
      8.64      -1.05       0.16
      8.15      -0.49       0.52
      8.21      -0.44       0.36
      8.29      -1.08       0.24
      8.31      -1.37       0.31
      9.64      -0.98       0.08
      8.59      -1.12       0.02
      8.31      -1.30       0.25
      8.19      -1.17       0.30
      8.24      -0.99       0.29
      8.23      -1.00       0.35
      8.50      -1.26       0.34
      8.85      -0.79       0.37
      8.98       0.05       0.62
      9.27      -0.23       0.64
      9.21      -0.43       0.52
      9.00      -0.32       0.38
      8.79      -0.68       0.29
      8.76      -0.91       0.39
      8.72      -0.74      -0.24
      8.63      -0.68      -0.53
      8.89      -0.36      -0.39
      8.95       0.05       0.22
      9.41      -0.26       0.18
      9.74      -0.06      -0.14
      9.74      -0.05      -0.22
      8.99       0.01       0.38
      9.07       0.41       0.43
      9.31       0.17      -0.25
      9.28      -0.15      -0.39
      9.00      -0.20      -0.05
      9.19      -0.38       0.09
      9.39      -0.66       0.08
      9.61      -0.97      -0.18
      9.52      -1.02      -0.28
      9.61      -0.78      -0.07
      8.91       0.30       0.13
      8.95      -0.25       0.03
      8.64      -0.29       0.41
      8.60      -0.06       0.71
      8.73      -0.45       0.58
      8.82      -1.01       0.67
      9.10      -1.61       0.57
      9.28      -0.86       0.24
      9.38      -0.22       0.13
      8.88      -0.28       0.12
      8.73      -0.22       0.22
      8.96      -0.41       0.56
      9.08      -0.58       0.44
      8.85      -0.70       0.01
      9.16      -0.74       0.28
      9.59      -0.97      -0.12
      9.09      -1.33       0.19
      9.60      -0.71       0.46
      9.14      -0.50       0.33
      8.41      -0.89       0.36
      8.50      -1.13       0.28
      8.81      -1.06       0.17
      8.80      -1.20       0.26
      8.47      -0.94       0.36
      8.47      -0.71       0.42
      8.61      -0.80       0.49
      8.93      -1.11       0.31
      9.17      -0.97       0.35
      8.92      -0.91       0.81
      8.79      -1.08       0.73
      9.10      -1.14      -0.02
      9.23      -0.76      -0.59
      8.92      -0.91      -0.38
      8.71      -0.80      -0.24
      8.90      -0.32      -0.10
      9.35       0.18      -0.05
      9.19       0.06      -0.05
      8.92       0.06       0.06
      9.10      -0.12      -0.06
      9.45      -0.17      -0.24
      9.38      -0.13      -0.38
      9.39      -0.29      -0.37
      9.69      -0.49      -0.37
      9.90      -0.45      -0.38
     10.00      -0.87      -0.42
      9.81      -0.93      -0.44
      9.80      -0.93      -0.00
      9.28       0.05       0.16
      9.35       0.16       0.03
      9.59      -0.17       0.00
      9.54      -0.24       0.53
      9.24      -0.45       0.76
      9.05      -0.46       0.58
      8.84      -0.06       0.39
      9.15      -0.18       0.47
      9.16      -0.40       0.33
      8.66      -0.38       0.39
      8.82      -0.52       0.64
      9.12      -0.46       1.02
      9.22      -0.49       0.65
      9.10      -0.82       0.36
      9.27      -0.47      -0.05
      9.59      -0.40      -0.06
      9.53      -1.06       0.52
      9.08      -0.80       0.67
      9.02      -0.23       0.70
      9.20      -0.11       0.10
      9.38      -0.31      -0.08
      9.18      -0.49       0.14
      9.20      -0.53       0.26
      9.49      -0.61       0.08
      9.35      -0.74       0.12
      9.37      -1.05       0.32
      9.49      -1.06      -0.04
      9.62      -1.02       0.20
      9.94      -1.22       0.29
     10.57      -1.54       0.04
     10.33      -0.90      -0.18
      9.78      -0.82      -0.17
      9.47      -1.04       0.07
      9.36      -0.68       0.13
      9.15      -0.33      -0.12
      8.91      -0.14      -0.18
      9.06      -0.01       0.09
      9.26       0.04       0.13
      9.27       0.10       0.20
      9.36      -0.16       0.24
      9.77      -0.53       0.02
     10.15      -0.54      -0.30
     10.13      -0.28      -0.38
     10.07      -0.35      -0.28
     10.17      -0.57      -0.12
      9.94      -0.81      -0.19
      9.94      -0.94      -0.27
      9.86      -0.37       0.10
      9.83      -0.17       0.09
      9.86       0.09       0.12
      9.50      -0.02       0.31
      9.21      -0.22       0.49
      9.53      -0.30       0.50
      9.63      -0.12       0.31
      9.17      -0.36       0.16
      8.99      -0.96       0.32
      9.33      -1.05       0.42
      9.47      -0.64       0.40
      9.25      -1.08       0.49
      9.25      -1.63       0.64
      9.72      -0.77       0.82
      9.56      -0.12       0.23
      8.84      -0.45       0.17
      8.59      -0.50       0.81
      8.89      -0.40       0.90
      9.33      -0.32       0.50
      9.83      -0.18       0.28
     10.06      -0.43       0.22
      9.90      -0.50      -0.05
     10.20      -0.57       0.21
      9.73      -0.57       0.17
      9.39      -0.68       0.42
      9.43      -0.92       0.31
      9.24      -1.06       0.10
      9.49      -1.15       0.02
      9.99      -1.09      -0.01
      9.95      -1.15       0.05
      9.79      -1.09       0.15
      9.72      -0.90       0.36
      9.55      -0.89       0.09
      9.60      -0.97       0.08
      9.73      -0.84      -0.11
      9.18      -0.97      -0.43
      8.94      -0.80      -0.06
      8.96      -0.47       0.05
      9.01      -0.21       0.04
      9.22      -0.31       0.03
      9.65      -0.47      -0.21
     10.18      -0.53      -0.42
     10.45      -0.64      -0.29
     10.13      -0.49      -0.09
      9.92      -0.35       0.11
     10.02      -0.35      -0.02
     10.13      -0.45      -0.07
      9.74      -0.10       0.00
      9.63      -0.24       0.28
      9.52      -0.41       0.37
      9.54      -0.03      -0.03
      9.67      -0.11       0.08
      9.48      -0.37       0.20
      9.20      -0.42       0.26
      9.11      -0.42       0.43
      9.24      -0.29       0.59
      9.35      -0.11       0.62
      9.19      -0.06       0.46
      9.15      -0.01       0.44
      9.27       0.02       0.56
      9.07       0.11       0.64
      8.95       0.04       0.51
      9.02      -0.09       0.29
      9.06      -0.15       0.32
      9.40      -0.06       0.29
      9.64       0.34       0.14
      9.76       0.48       0.23
      9.97       0.36       0.33
     10.01       0.25      -0.10
      9.96      -0.09      -0.17
      9.97      -0.44       0.23
      9.82      -0.41       0.45
      9.83      -0.51       0.26
      9.85      -0.70       0.23
      9.72      -0.70       0.25
      9.75      -0.76       0.01
      9.80      -0.82      -0.10
      9.76      -0.96       0.17
      9.87      -1.13       0.15
     10.01      -1.28      -0.26
      9.87      -1.09      -0.29
      9.72      -0.97      -0.07
      9.73      -0.95      -0.03
      9.83      -0.81      -0.06
      9.74      -0.69       0.10
      9.65      -0.67       0.23
      9.75      -0.72       0.24
      9.88      -0.88       0.06
      9.78      -0.88      -0.11
      9.87      -0.65      -0.16
     10.08      -0.62      -0.24
     10.12      -0.57      -0.17
     10.35      -0.64      -0.08
     10.48      -0.66      -0.30
