# vtk DataFile Version 3.0
Low resolution, disturbed wind of XY Slice at time = 30 seconds.
ASCII
DATASET STRUCTURED_POINTS
DIMENSIONS    47    26     1
ORIGIN     635.00     635.00      85.00
SPACING      30.00      30.00      30.00
POINT_DATA            1222
VECTORS DisXY float
      8.56      -0.33       0.23
      8.32      -0.17      -0.03
      8.68      -0.40      -0.21
      8.88      -0.05       0.30
      9.11       0.52       0.02
      8.97       0.52       0.18
      9.03       0.59       0.47
      8.94       0.57       0.57
      9.55       0.96       0.24
      8.38       0.26       0.14
      8.20       0.33       0.86
      8.04       0.69       0.72
      8.18       0.64       0.69
      8.72       0.42       0.49
      8.56       0.09       0.38
      8.73       0.23      -0.08
      8.69       0.09      -0.12
      9.05      -0.02      -0.45
      8.98       0.56       0.18
      9.22       0.18      -0.02
      8.87      -0.26       0.07
      8.45       0.07      -0.38
      9.30       0.81       0.18
      9.27       1.08      -0.23
      8.78       1.55      -0.17
      7.94       0.35       0.49
      7.88       0.49       0.26
      8.47       0.54      -0.26
      8.49       0.21      -0.50
      8.32       0.19      -0.15
      8.30      -0.07       0.24
      8.76      -0.56      -0.19
      8.74       0.58       0.13
      7.80       0.33       0.65
      7.48      -0.13      -0.15
      7.64       0.19       0.13
      7.17       0.12       0.55
      6.88      -0.14       0.35
      6.61      -0.68       0.53
      6.94      -0.25       0.36
      6.63       0.33       0.21
      6.55      -0.30      -0.09
      6.84       0.22       0.52
      6.63       0.09       0.33
      6.65      -0.21       0.16
      7.30       0.11       0.35
      7.75       0.55       0.31
      7.98      -0.01       0.27
      7.49      -0.34       0.39
      7.92      -0.99       0.29
      7.96      -0.72      -0.23
      8.34       0.65       0.01
      7.86       0.76       0.44
      7.87       0.22       0.93
      7.54       0.20       0.79
      7.76       0.51       0.22
      7.97       0.49       0.01
      8.13       0.48       0.44
      7.77       0.43       0.33
      7.75       0.43       0.38
      7.74       0.23      -0.14
      8.04       0.22      -0.10
      8.15      -0.03       0.10
      7.58       0.08      -0.24
      7.06      -0.19       0.66
      7.26       0.60       0.70
      8.05      -0.02      -0.06
      8.82      -0.05      -0.20
      8.72       0.38      -0.04
      8.63       0.18      -0.07
      8.90       0.95      -0.32
      9.29       0.97      -0.35
      8.92       0.72       0.06
      8.80       0.43      -0.23
      8.23       0.69      -0.13
      8.54       0.62      -0.04
      8.34       0.16       0.22
      8.23      -0.10       0.46
      8.11      -0.43      -0.02
      8.23       0.57       0.38
      8.04       1.12       0.02
      8.78      -0.31       0.00
      8.03       0.85       0.13
      7.79       0.61      -0.42
      8.18       0.29       0.29
      7.67      -0.50       0.35
      7.46      -0.23      -0.10
      7.30       0.01      -0.11
      7.24      -0.61      -0.11
      7.68       0.20      -0.06
      7.62       0.53      -0.10
      7.50      -0.37       0.20
      6.89       0.14       0.73
      6.41       0.41       0.98
      8.05      -0.42       0.15
      8.04      -0.39      -0.46
      7.77      -0.89      -0.49
      7.75      -0.64       0.11
      7.54       0.80       0.33
      7.87       0.88       0.76
      8.05       0.49       0.80
      7.38       0.44       0.07
      7.10       0.18       0.03
      7.34       0.23       0.20
      7.34       0.15       0.25
      7.33       0.05       0.50
      7.37       0.04       0.33
      7.47       0.17       0.44
      7.72       0.09       0.17
      8.23       0.15      -0.24
      8.21       0.34       0.10
      7.86       0.18       0.32
      8.52      -0.03      -0.01
      8.69       0.38      -0.17
      7.74      -0.32       0.20
      7.91       0.25       0.15
      8.40       0.38       0.26
      8.52       0.60      -0.65
      8.45       0.61      -0.17
      8.69       0.75      -0.60
      8.06       0.62      -0.01
      7.89       0.62       0.13
      8.75       0.76       0.71
      8.91       0.41       0.57
      8.22      -0.13      -0.03
      7.48      -0.35      -0.00
      7.67       0.20       0.54
      8.08       0.86       0.16
      7.71       0.26       0.17
      7.84       0.24       0.41
      8.01       0.97      -0.30
      7.48       0.16       0.37
      6.97      -0.25       0.23
      7.13      -0.41       0.30
      7.11      -0.83       0.57
      7.30      -0.53       0.20
      7.43       0.11      -0.18
      8.05       0.17      -0.93
      8.08       0.12      -0.02
      7.72       0.63      -0.07
      7.34       0.29       0.14
      7.02      -0.98      -0.10
      7.28      -0.64      -0.33
      6.99      -0.13      -0.21
      6.71      -0.41       0.88
      6.99      -0.04       0.83
      7.10      -0.15       0.77
      7.39       0.49       0.05
      6.92       0.11      -0.29
      7.06       0.21       0.75
      6.99      -0.05       0.51
      7.27      -0.02       0.25
      7.38       0.15       0.51
      7.76       0.25      -0.19
      7.88       0.14      -0.54
      7.93       0.25       0.14
      7.90       0.31      -0.04
      7.92       0.44      -0.68
      7.38      -0.11      -0.14
      7.31      -0.26       0.21
      7.63       0.01       0.19
      7.27      -0.17       0.55
      7.75      -0.15       0.48
      7.36       0.02       0.38
      7.29       0.51      -0.30
      7.46      -0.02       0.09
      7.54       0.39       0.58
      7.88       0.72       0.89
      7.31       0.60       0.98
      7.38       0.72       0.19
      7.83       0.47       0.17
      7.89       0.16      -0.09
      7.80       0.44      -0.46
      7.47      -0.02      -0.09
      7.43       1.09      -0.02
      7.52       0.38       0.61
      7.13       0.04       0.30
      7.19       0.42       0.31
      7.60       0.35       0.42
      7.68       0.37       0.10
      7.08      -0.19       0.24
      7.22      -0.46       0.77
      7.57      -0.20       0.09
      8.00      -0.19      -0.62
      7.67      -0.16      -0.59
      8.43      -0.31      -0.53
      7.85       0.83      -0.21
      7.79       0.39      -0.19
      9.14      -0.06      -0.26
      8.21      -0.25      -0.38
      7.23      -0.21      -0.10
      6.96       0.69       0.49
      6.85       0.23      -0.10
      6.18      -0.03       0.83
      6.10       0.59       0.47
      6.80       0.48       0.43
      6.99       0.30      -0.22
      6.71      -0.64       0.03
      6.35      -0.09       0.25
      6.71       0.22       0.33
      7.08       0.02       0.43
      7.08       0.51       0.53
      7.49       0.57      -0.04
      6.28       0.23       0.41
      6.12       0.21       0.62
      6.40       0.11       0.39
      6.51      -0.24       0.95
      6.55      -0.79       0.28
      6.79      -0.30      -0.17
      7.10       0.32       0.33
      6.96       0.13       0.40
      6.91       0.18       0.51
      7.72       0.30      -0.34
      7.13       0.49       0.69
      7.05       0.53       0.44
      7.28       0.41      -0.11
      6.94       0.52       0.37
      7.47       0.74      -0.01
      7.18       0.07      -0.04
      7.65       0.16       0.19
      7.44       0.59       0.16
      7.59       0.63      -0.09
      7.49       0.80       0.20
      7.58       0.16       0.31
      7.38       0.19       0.09
      8.13       0.16       0.39
      7.82       0.08      -0.36
      8.14      -0.39      -0.11
      7.99       0.15       0.24
      7.12       0.12       1.07
      7.04       0.16       0.21
      7.35      -0.55      -0.05
      6.87      -0.37       0.18
      7.61       0.39      -0.44
      7.25       0.53      -0.58
      7.10      -0.27       0.43
      7.39       0.18      -0.00
      6.90       0.04       0.29
      7.26       0.18       0.16
      7.32       0.35      -0.09
      7.68       0.95      -0.21
      6.97       0.35       0.07
      6.71       0.10       0.30
      7.17       0.14      -0.14
      7.44       0.05      -0.21
      7.43       0.18      -0.32
      7.73       0.09      -0.16
      8.04      -0.18      -0.49
      7.60       0.02      -0.29
      7.27       0.24      -0.40
      6.59       0.42      -0.09
      6.65       0.34       0.38
      6.91       0.13       0.09
      7.06      -0.03       0.34
      6.68      -0.47       0.45
      6.76      -0.31       0.91
      7.15       0.04       0.38
      7.15       0.41       0.15
      6.86       0.39       0.39
      6.91       0.34       0.69
      6.79       0.17       0.83
      6.73       0.05       0.77
      6.80      -0.11       0.54
      7.23       0.11       0.28
      7.60       0.20       0.22
      7.74       0.00      -0.09
      7.71      -0.12      -0.22
      7.78      -0.04      -0.09
      7.68       0.89      -0.07
      7.96       1.00       0.07
      7.87       0.24      -0.10
      7.91       0.05      -0.26
      7.70      -0.03       0.19
      7.26       0.01      -0.38
      7.10       0.14      -0.05
      7.06       0.07       0.21
      7.50      -0.11       0.02
      7.77      -0.25      -0.40
      7.38      -0.01      -0.32
      6.94      -0.09       0.18
      6.69       0.51       0.43
      6.63       0.36       0.54
      6.38      -0.28       0.30
      6.57      -0.06       0.40
      7.15      -0.04       0.27
      7.16       0.12      -0.00
      7.06       0.18       0.24
      7.75       0.81      -0.32
      7.72       0.55       0.01
      7.33       0.47      -0.21
      6.93      -0.19       0.37
      7.35      -0.17       0.67
      7.35      -0.14       0.58
      7.86      -0.36       0.03
      8.14      -0.13      -0.19
      8.31       0.23      -0.63
      8.26       0.78      -0.67
      7.95       0.24      -0.56
      8.24       0.01      -0.26
      8.05      -0.14      -0.03
      8.02      -0.26      -0.42
      7.62      -0.39       0.30
      7.79      -0.15      -0.16
      7.83       0.05       0.22
      7.26       0.38       0.15
      7.29       0.43      -0.23
      7.17       0.40       0.26
      7.13       0.26       0.26
      7.01       0.20       0.47
      7.21       0.34       0.21
      7.81       0.18      -0.03
      7.65       0.24      -0.34
      8.11       0.06      -0.39
      8.11      -0.28      -0.29
      7.95       0.18      -0.33
      7.68       0.28      -0.29
      7.98       0.51      -0.37
      7.74       0.37       0.12
      7.60       0.70      -0.01
      7.50       0.21       0.04
      7.32       0.22      -0.24
      7.09       0.34       0.06
      7.28       0.10      -0.08
      7.12       0.06       0.29
      7.45      -0.04       0.22
      7.25      -0.02       0.02
      7.19       0.34       0.28
      7.47       0.36      -0.14
      7.16       0.37       0.08
      7.97      -0.37       0.05
      7.79      -0.02       0.17
      7.49       0.00       0.22
      7.62       0.30       0.21
      8.00       0.11      -0.55
      8.27       0.45      -0.26
      7.50       0.73      -0.16
      7.20       0.71       0.18
      7.78      -0.36       0.24
      8.27      -0.78      -0.46
      7.91      -0.62       0.02
      7.94      -0.28       0.01
      8.20      -0.11      -0.40
      8.06       0.54       0.07
      8.05       0.41      -0.19
      8.60       0.20      -0.23
      8.50      -0.01      -0.48
      8.16       0.29      -0.05
      8.10      -0.01      -0.34
      7.93       0.06       0.12
      7.47      -0.30       0.16
      7.01      -0.11       0.54
      7.70       0.69       0.30
      7.58       0.53      -0.04
      7.11       0.05       0.06
      7.33      -0.29       0.27
      7.82      -0.15       0.22
      7.52       0.13       0.10
      7.69       0.35       0.05
      7.79       0.09      -0.11
      7.55      -0.09      -0.16
      7.25       0.14       0.10
      7.38       0.08      -0.34
      7.72       0.10      -0.35
      7.84       0.37       0.15
      7.37       1.01       0.49
      7.68       0.37      -0.01
      7.89       0.07      -0.22
      7.82       0.06      -0.20
      8.14       0.26      -0.12
      7.70      -0.28      -0.37
      7.87      -0.52      -0.39
      7.68       0.12      -0.59
      7.49       0.31       0.15
      7.63       0.40      -0.16
      7.35      -0.33      -0.42
      7.57       0.47      -0.06
      8.13      -0.99      -0.32
      8.05      -0.96      -0.43
      7.21       0.55       0.02
      7.81       0.32       0.57
      8.39      -0.05       0.01
      8.08       0.32      -0.33
      7.40       0.96       0.18
      8.12      -0.35       0.07
      8.43      -0.35       0.03
      7.90      -0.93       0.13
      7.53      -0.37       0.61
      7.57      -0.27       0.37
      8.18      -0.06       0.05
      8.37       0.29      -0.14
      8.52      -0.14      -0.54
      8.11      -0.01      -0.19
      8.27      -0.21       0.09
      8.57       0.02      -0.18
      7.70      -0.05      -0.59
      8.12       0.59       0.08
      7.65       0.26      -0.27
      7.20       0.02       0.42
      7.16      -0.04       0.44
      7.64       0.25       0.28
      7.63      -0.38       0.02
      7.28      -0.41       0.19
      7.00      -0.52       0.06
      7.20      -0.33       0.02
      7.75      -0.30       0.06
      8.19       0.31       0.04
      7.82      -0.07      -0.25
      7.50       0.02      -0.13
      7.51      -0.11      -0.43
      7.58       0.14      -0.33
      7.44       0.29       0.13
      7.61       0.26       0.19
      7.48       0.02       0.12
      7.50      -0.58      -0.09
      7.62      -0.14      -0.36
      8.17       0.12      -0.18
      8.09       0.01      -0.28
      7.50      -0.60       0.16
      7.80       0.04       0.11
      7.92       0.06      -0.11
      7.51       0.36      -0.22
      7.54      -0.05       0.10
      7.47       0.07      -0.09
      8.80      -1.19      -0.46
      8.73      -0.76      -0.35
      8.86       0.09      -0.54
      8.90      -0.04      -0.03
      8.57       0.30      -0.29
      8.41       0.36      -0.12
      8.30       0.51      -0.18
      8.14      -0.37      -0.01
      8.35      -0.03      -0.22
      7.66      -0.52       0.83
      7.61      -0.39       0.20
      7.76       0.19       0.12
      7.88      -0.10      -0.06
      7.84      -0.27       0.20
      7.99       0.57       0.06
      7.86       0.00       0.18
      7.83       0.16       0.04
      7.96       0.81       0.09
      7.25       0.15       0.05
      7.69       0.14       0.29
      7.45       0.28       0.39
      7.38      -0.15       0.33
      7.63       0.14      -0.16
      7.65      -0.01       0.02
      8.13      -0.31       0.20
      7.57      -0.26       0.14
      7.60      -0.31      -0.28
      7.41      -0.84      -0.47
      7.73      -0.80      -0.12
      8.28       0.38       0.19
      7.74       0.07       0.01
      7.69       0.38      -0.36
      7.41       0.13      -0.34
      7.09       0.01      -0.04
      6.82       0.39       0.61
      6.98      -0.64      -0.04
      7.62       0.03      -0.32
      7.98       0.04      -0.57
      7.88      -0.23      -0.12
      7.58       0.13      -0.08
      7.37       0.27       0.29
      7.15      -0.49       0.47
      7.66       0.12       0.04
      6.84       0.22      -0.21
      6.92      -0.18       0.18
      7.50       0.08      -0.21
      7.74      -0.04       0.08
      6.93      -0.51       0.32
      7.68      -0.62      -0.10
      8.33      -0.05       0.24
      8.46       0.77      -0.16
      8.19       0.29      -0.43
      8.24       0.33      -0.53
      8.53       0.38      -0.70
      8.74       0.41      -0.11
      7.87      -0.15      -0.28
      8.06       0.22      -0.20
      7.40      -0.05      -0.12
      7.82       0.20       0.12
      4.78      -0.49       0.46
      3.99      -0.26       0.96
      4.22       0.31       0.74
      4.84      -0.48       0.40
      5.65       0.43       0.13
      5.87       0.80       0.39
      5.59       0.75       0.34
      5.88       0.27       0.30
      7.58       0.39       0.27
      7.69       0.25       0.09
      7.13      -0.02       0.46
      7.54      -0.10       0.34
      7.66      -0.21       0.05
      7.41      -0.07       0.25
      7.62      -0.53      -0.10
      7.41       0.05      -0.28
      7.13      -0.40       0.98
      7.69       0.22       0.53
      7.01       0.59      -0.01
      7.43       0.32      -0.15
      7.50       0.41       0.03
      7.98       0.66      -0.14
      6.86       0.21       0.14
      6.24      -0.31       0.27
      6.40      -0.45       0.02
      6.57      -0.12      -0.48
      6.73      -0.03      -0.03
      7.44       0.33      -0.25
      6.72       0.60       0.03
      7.27      -0.01       0.18
      7.15       0.28       0.37
      7.85      -0.01      -0.32
      8.16       0.12      -0.40
      7.24       0.26       0.37
      7.11       0.37       0.20
      6.71      -0.32       0.54
      6.74      -0.51       0.59
      6.83       0.21       0.69
      6.83       0.24       0.02
      7.06      -0.04      -0.17
      7.79       0.05      -0.40
      7.56       0.16      -0.03
      8.08       0.67      -0.44
      8.09       0.61      -0.18
      7.44       0.17      -0.16
      7.44       0.26       0.21
      7.45      -0.24       0.21
      4.45      -0.35       0.19
      2.94      -0.13       0.70
      2.82       0.13       0.68
      2.73       0.27       0.98
      2.67       0.51       0.79
      2.86       0.96       0.55
      3.70       0.60       0.62
      4.17       0.18       0.50
      7.86       0.35       0.35
      7.39       0.49       0.50
      7.60       0.26       0.45
      7.82      -0.14       0.19
      7.55      -0.34       0.17
      7.66      -0.32       0.21
      7.65      -0.33      -0.14
      7.63      -0.25      -0.27
      6.97       0.17      -0.01
      7.04       0.26       0.75
      6.91       0.08       0.21
      6.98       0.11       0.14
      7.01       0.15       0.03
      7.36       0.14       0.07
      7.06       0.14       0.52
      7.25       0.06      -0.21
      6.93      -0.35       0.43
      6.37      -0.62       0.23
      6.83      -0.14       0.14
      6.77      -0.51      -0.09
      7.39      -0.00       0.18
      6.55       0.22       0.31
      7.10      -0.40       0.08
      7.02      -0.02       0.44
      7.67       0.33      -0.61
      7.14       0.22       0.37
      6.83       0.02       1.08
      6.97      -0.25       0.14
      8.04       0.57       0.21
      6.77      -0.08       0.80
      6.72       0.08       0.33
      6.88       0.19       0.30
      6.88       0.28       0.08
      6.60       0.22       0.05
      6.32       0.35       0.18
      6.69      -0.26       0.23
      6.57      -0.12       0.50
      6.71      -0.15       0.36
      6.66      -0.24       0.08
      4.40      -0.09       0.33
      3.97      -0.09       0.67
      3.92      -0.21       0.78
      4.01       0.31       0.89
      4.30       0.44       0.65
      4.20       0.35       0.59
      4.19      -0.04       0.68
      4.61       0.00       0.55
      7.55       0.10       0.36
      7.62       0.11       0.47
      7.57      -0.32       0.16
      7.55      -0.17      -0.02
      7.84      -0.07      -0.03
      8.09      -0.45       0.28
      7.20      -0.00      -0.24
      7.39       0.11      -0.15
      6.39       0.27       0.63
      6.91       0.18       0.44
      7.45      -0.38       0.16
      7.22      -0.16       0.13
      8.12      -0.05      -0.01
      7.73       0.30      -0.12
      7.29       0.33      -0.45
      6.65       0.10       0.49
      6.47       0.22       0.40
      6.57      -0.42       0.39
      7.48      -1.20       0.23
      7.73      -0.13      -0.94
      7.25       0.33      -0.13
      7.03       0.59      -0.14
      7.81       0.18      -0.26
      7.15       0.60       0.28
      7.60      -0.07      -0.23
      7.58       0.19       0.07
      7.73      -0.05      -0.20
      6.79      -0.80       0.23
      6.91      -0.44       0.11
      7.29      -0.35       0.08
      7.37       0.26       0.36
      6.72      -0.01       0.45
      7.01       0.14       0.14
      6.41       0.43       0.38
      6.67       0.05       0.50
      6.73      -0.49       0.50
      7.12      -0.59      -0.02
      7.33      -0.75      -0.12
      7.39      -0.59      -0.45
      5.40      -0.64      -0.15
      3.93      -0.41       0.14
      3.74       0.10       0.51
      3.68       0.18       0.36
      3.80      -0.07       0.59
      3.90       0.09       0.46
      4.37       0.05       0.41
      4.40       0.23       0.30
      7.81       0.35      -0.38
      8.00       0.53      -0.27
      7.60       0.24       0.13
      7.33       0.03       0.29
      7.76      -0.77       0.61
      7.24      -0.14       0.37
      7.39       0.22      -0.29
      7.24       0.89       0.14
      7.48       0.46       0.06
      7.24      -0.44      -0.37
      6.93      -0.09      -0.07
      7.03      -0.40       0.66
      7.22      -0.39       0.53
      6.92       0.20       0.65
      7.88       0.60       0.13
      7.63       0.58      -0.13
      7.80       0.44      -0.64
      7.46      -0.45      -0.74
      6.84      -0.84      -0.02
      6.00      -0.68       0.40
      5.82      -0.72       1.08
      7.18       0.19       0.36
      7.25       0.69      -0.21
      7.82       0.12      -0.32
      7.47      -0.06      -0.13
      7.88       0.37      -0.70
      7.44      -0.02      -0.31
      6.62      -0.58       0.44
      6.31      -0.54       0.49
      6.32      -0.45       0.54
      6.65      -0.21       0.24
      6.48      -0.14       0.08
      6.74      -0.04       0.08
      6.54       0.01      -0.01
      6.74      -0.11      -0.19
      6.90      -0.16      -0.59
      6.79      -0.77      -0.40
      6.85      -0.26       0.11
      7.04      -0.29       0.42
      4.39      -0.32       0.37
      2.82      -0.08       0.50
      3.47      -0.09       0.44
      4.01      -0.52       0.57
      4.83      -0.02       0.32
      5.05      -0.07       0.11
      4.91       0.26       0.26
      4.82       0.20      -0.32
      8.04      -0.37      -0.47
      8.04      -0.31      -0.22
      8.67       0.65      -0.49
      8.34      -0.24      -0.16
      7.77       0.19       0.13
      7.50       0.33       0.35
      7.54       0.08       0.26
      7.97       0.04       0.09
      8.09      -0.06      -0.56
      7.73      -0.23      -0.34
      7.67      -0.26      -0.51
      7.69       0.52       0.02
      6.55       0.13       0.37
      6.53       0.25       0.57
      6.74       0.06       0.51
      7.52       0.33      -0.14
      7.73      -0.69      -0.41
      8.17      -0.27      -1.10
      6.67       0.44      -0.35
      7.39       0.27       0.25
      7.52      -0.49       0.03
      6.63      -0.14       0.78
      6.86      -0.12       0.29
      7.14      -0.09       0.05
      7.24      -0.13       0.38
      6.99      -0.11       0.20
      6.79       0.21       0.25
      7.07      -0.46       0.51
      6.34      -0.33       0.78
      7.16      -0.71       0.85
      6.67      -1.26       0.96
      7.58      -0.75       0.21
      6.88      -0.66       0.50
      6.99      -0.66       0.61
      6.95      -0.71      -0.04
      6.78      -0.27      -0.40
      6.91       0.33      -0.09
      7.68      -0.56       0.12
      7.45      -0.28      -0.24
      7.75      -0.33       0.27
      7.27      -0.46       0.36
      7.22      -0.79       0.37
      7.29      -0.64       0.28
      7.58      -0.51      -0.21
      7.01       0.01      -0.48
      7.23      -0.25      -0.37
      7.21      -0.40      -0.47
      7.67      -0.26      -0.09
      6.93       0.12      -0.16
      6.55       0.00       0.26
      7.11       0.31       0.19
      6.92      -0.47      -0.17
      7.65      -0.11      -0.18
      8.10      -0.22       0.00
      8.24       0.01      -0.55
      7.59       0.10      -0.32
      7.15      -0.00       0.61
      7.88       0.40      -1.23
      6.95       0.74       1.19
      7.22      -0.20       0.08
      7.68      -0.59      -0.25
      7.04      -0.72       0.38
      7.93      -0.23       0.38
      7.98      -0.57       0.23
      7.98      -0.43      -0.34
      8.15       0.14      -0.80
      8.14       0.85      -0.20
      7.27       0.38       0.14
      7.56       0.76      -0.35
      7.01       0.41       0.01
      6.63       0.26       0.94
      6.61       0.18       0.79
      7.32       0.11       0.44
      6.49       0.03      -0.10
      7.85      -0.36       0.03
      8.27      -0.19       0.08
      8.27      -0.48      -0.25
      7.83      -0.16       0.04
      7.79      -0.91       0.57
      7.00      -0.28       0.47
      6.79      -0.15       0.07
      6.87      -0.11      -0.74
      6.94      -0.09      -0.88
      7.39       0.06      -1.21
      8.01      -0.02      -1.43
      7.60      -0.37      -0.25
      7.98      -0.65       0.12
      7.54      -0.42       0.23
      7.78      -0.90       0.06
      7.82      -0.36      -0.29
      6.82      -0.51       0.56
      7.05      -0.81       0.02
      7.78      -0.26      -0.25
      7.53      -0.43       0.02
      7.30      -0.29       0.21
      6.97       0.23       0.10
      6.28      -0.09       0.56
      6.54      -0.20       0.91
      6.37      -0.29       0.59
      6.78      -0.20       0.15
      6.66      -0.01      -0.14
      6.72       0.20       0.68
      6.36       0.73       0.12
      7.50      -0.48      -0.03
      7.69      -0.15       0.24
      8.36       0.01       0.66
      7.83      -0.24      -0.10
      6.82      -0.33       0.27
      6.96      -0.48      -0.05
      6.91      -0.75       0.42
      7.22      -0.68       0.58
      6.55      -0.44       0.56
      6.85       0.02       0.44
      6.91       0.36       0.30
      7.65       0.58      -0.12
      7.65       0.34       0.05
      7.27       1.19      -0.19
      7.11       0.60      -0.24
      7.29       0.47      -0.42
      6.99       0.70      -0.04
      7.19       0.31      -0.21
      8.05       0.03      -0.59
      8.53       0.03      -0.31
      9.12      -0.26      -0.09
      8.58      -0.29      -0.40
      8.13      -0.20      -0.57
      7.82       0.24       0.08
      7.97      -0.31       0.29
      8.40       0.04      -0.16
      7.86      -0.10      -0.49
      8.06      -0.33      -0.70
      8.10       0.01      -0.63
      7.90      -0.05      -0.89
      8.48       0.14      -0.74
      8.91      -0.75      -0.63
      8.30      -0.45      -0.62
      7.76       0.08       0.36
      7.41       0.02      -0.18
      7.69      -0.64      -0.62
      7.67      -0.84      -0.13
      7.62      -0.51       0.24
      7.42       0.03      -0.06
      6.99       0.20       0.17
      6.91       0.32       0.02
      6.64      -0.27       0.19
      6.88      -0.06       0.63
      7.76      -0.55       0.17
      7.30       0.05       0.38
      7.11       0.19      -0.06
      7.43      -0.67       0.41
      7.81      -1.00      -0.20
      7.79      -0.54      -0.29
      8.19      -0.58      -0.74
      8.57       0.03       0.06
      8.31      -0.20      -0.49
      7.81      -0.41      -0.54
      6.98      -0.33      -0.19
      7.01      -0.37       1.07
      6.92      -0.14       0.59
      7.01      -0.89       0.43
      7.07      -0.50       0.64
      7.42       0.02       0.07
      7.70      -0.06      -0.22
      7.17       0.19       0.32
      7.55       0.79       0.52
      7.42       0.48      -0.00
      7.58       0.71      -0.25
      7.67       0.82      -0.32
      8.32      -0.44       0.14
      8.23      -0.15       0.21
      8.18      -0.25       0.38
      7.74       0.48       0.16
      8.38      -0.51      -0.00
      8.37      -0.17       0.22
      7.53      -0.62       0.50
      7.30      -0.09       0.27
      7.49      -0.27      -0.72
      7.70      -0.13       0.16
      7.33      -0.35      -0.04
      7.62       0.01      -0.47
      7.61      -0.55      -0.33
      7.79      -0.44      -0.57
      8.61      -0.03      -0.93
      8.60       0.16       0.30
      8.69      -0.32       0.10
      7.67      -0.56      -0.36
      7.87      -0.18      -0.36
      7.13      -0.13       0.55
      7.08      -0.31       0.12
      7.23       0.31      -0.07
      7.24       0.13       0.52
      7.26      -0.61       0.54
      7.54      -1.29       0.34
      7.87      -1.24      -0.22
      7.37      -0.38       0.35
      7.98      -0.12       0.03
      8.04      -0.56      -0.15
      7.83      -0.75       0.03
      8.00      -0.94      -0.27
      8.09      -0.96       0.37
      8.14      -0.21      -0.48
      8.53      -0.33      -0.77
      8.29       0.16      -0.78
      8.66      -0.15      -0.57
      7.88      -0.10       0.30
      7.71      -0.21       0.45
      7.47      -0.37       0.37
      7.55      -0.60      -0.12
      7.35      -0.14       0.00
      7.32       0.36       0.44
      7.57       0.38       0.50
      7.60      -0.09       0.21
      7.92       0.06       0.19
      7.90       0.43      -0.24
      8.15       0.16      -0.16
      8.48      -0.36      -0.47
      8.53      -0.29      -0.72
      8.70      -0.07      -0.08
      8.73      -0.27      -0.02
      8.85      -0.46       0.04
      8.32      -0.65       0.32
      8.14      -0.57       0.10