# vtk DataFile Version 3.0
Low resolution, disturbed wind of XY Slice at time = 24 seconds.
ASCII
DATASET STRUCTURED_POINTS
DIMENSIONS    47    26     1
ORIGIN     635.00     635.00      85.00
SPACING      30.00      30.00      30.00
POINT_DATA            1222
VECTORS DisXY float
      8.57      -0.18      -0.12
      8.78      -0.36      -0.04
      9.07       0.54       0.17
      9.02       0.41       0.21
      8.99       0.77       0.17
      8.89       0.53       0.75
      9.42       0.92       0.27
      8.94       0.61       0.22
      8.04       0.30       0.59
      8.49       0.54       0.75
      8.23       0.96       0.64
      8.41       0.43       0.62
      8.70       0.16       0.59
      8.58       0.08      -0.01
      8.84       0.37      -0.18
      8.95      -0.01      -0.18
      9.04       0.25      -0.23
      9.29       0.27       0.12
      8.88      -0.16      -0.08
      8.60       0.00      -0.10
      8.90       0.43      -0.40
      9.52       1.10       0.12
      9.03       1.40      -0.43
      8.30       1.15       0.48
      7.97       0.11       0.29
      8.39       0.56      -0.09
      8.41       0.47      -0.62
      8.40       0.02      -0.00
      8.24       0.08      -0.16
      8.64      -0.30       0.34
      8.65      -0.32      -0.38
      8.59       0.89       0.47
      7.14      -0.12       0.44
      7.83       0.19      -0.39
      7.39       0.21       0.46
      7.04      -0.06       0.54
      6.78      -0.40       0.37
      6.56      -0.71       0.57
      6.99       0.19       0.39
      6.53       0.23       0.15
      6.54      -0.24       0.09
      7.05       0.45       0.56
      6.64      -0.01       0.31
      6.71      -0.16       0.22
      7.32       0.20       0.43
      7.78       0.58       0.39
      8.28       0.43       0.08
      7.57      -0.57       0.41
      8.10      -0.83       0.38
      8.01      -0.03      -0.32
      8.23       0.96       0.20
      7.90       0.54       0.56
      7.78       0.22       1.02
      7.69       0.38       0.33
      7.99       0.59       0.11
      8.10       0.35       0.10
      7.95       0.46       0.51
      7.67       0.39       0.23
      7.71       0.27       0.09
      7.98       0.22      -0.13
      8.02       0.06      -0.02
      8.27       0.17      -0.02
      7.21      -0.02       0.14
      6.97       0.15       0.85
      7.68       0.40       0.33
      8.57      -0.29      -0.18
      8.83       0.29      -0.19
      8.71       0.35      -0.01
      8.89       0.59      -0.34
      9.24       0.95      -0.47
      9.04       0.72      -0.07
      8.87       0.53       0.00
      8.41       0.54      -0.38
      8.41       0.74      -0.06
      8.56       0.33       0.08
      8.19       0.10       0.28
      8.21      -0.37       0.45
      8.13      -0.05      -0.16
      8.12       1.28       0.49
      8.48       0.28      -0.24
      8.59       0.05       0.11
      7.75       0.99      -0.12
      8.14       0.38      -0.33
      7.92      -0.11       0.78
      7.42      -0.44       0.22
      7.40      -0.11      -0.23
      7.12      -0.17      -0.05
      7.46      -0.51      -0.19
      7.65       0.56       0.07
      7.68       0.27      -0.01
      7.24      -0.42       0.50
      6.87       0.32       0.86
      6.61       0.38       0.80
      7.09       0.28      -0.21
      7.87      -0.58      -0.60
      7.72      -0.99      -0.36
      7.57       0.07       0.27
      7.52       0.91       0.74
      7.97       0.75       0.98
      7.86       0.46       0.31
      7.10       0.42       0.03
      7.12       0.14       0.12
      7.43       0.06       0.29
      7.30       0.06       0.31
      7.28      -0.08       0.42
      7.35       0.11       0.34
      7.56       0.20       0.35
      8.19       0.13      -0.15
      8.34       0.38       0.01
      8.03       0.19       0.17
      8.03       0.07       0.19
      8.85       0.21      -0.22
      8.11       0.00       0.02
      7.59      -0.16       0.16
      8.18       0.37       0.25
      8.40       0.53      -0.26
      8.54       0.59      -0.34
      8.44       0.58      -0.38
      8.45       0.91      -0.39
      7.80       0.37       0.29
      8.47       0.70       0.44
      9.11       0.38       0.67
      8.28       0.20       0.30
      7.78      -0.29      -0.29
      7.34      -0.15       0.33
      7.80       0.70       0.55
      8.07       0.44      -0.15
      7.47       0.22       0.50
      7.87       0.73      -0.10
      7.80       0.62       0.09
      7.22      -0.05       0.31
      6.92      -0.37       0.22
      7.02      -0.59       0.37
      7.11      -0.79       0.55
      7.40      -0.33       0.00
      7.67       0.22      -0.52
      8.49      -0.05      -0.78
      7.94       0.31       0.08
      7.60       0.63       0.08
      7.56       0.23      -0.01
      7.59       0.32      -0.13
      7.41      -0.23      -0.48
      6.81      -0.06       0.15
      6.53      -0.19       1.03
      7.14       0.28       0.65
      7.32       0.04       0.70
      7.24       0.53      -0.28
      6.92      -0.05      -0.03
      6.98       0.18       0.86
      7.05      -0.24       0.28
      7.33       0.14       0.32
      7.52       0.07       0.33
      7.93       0.34      -0.40
      7.95       0.10      -0.25
      7.83       0.37       0.26
      7.80       0.33      -0.61
      7.92       0.23      -0.22
      7.15      -0.31      -0.17
      7.58      -0.09       0.34
      7.48      -0.04       0.20
      7.30      -0.14       0.53
      7.65      -0.02       0.51
      7.23       0.09       0.17
      7.47       0.49      -0.35
      7.50      -0.03       0.40
      7.51       0.80       0.69
      7.35       0.66       0.99
      7.25       0.64       0.55
      7.47       0.69      -0.09
      8.06       0.31       0.12
      7.81       0.15      -0.21
      7.72       0.35      -0.48
      7.34       0.24       0.03
      7.38       1.16       0.30
      7.39       0.09       0.61
      7.08       0.24       0.26
      7.34       0.35       0.52
      7.65       0.36       0.26
      7.62       0.16       0.13
      7.02      -0.34       0.45
      7.27      -0.52       0.57
      7.82      -0.04      -0.20
      7.81      -0.27      -0.79
      8.15      -0.22      -0.48
      8.24       0.04      -0.27
      7.76       0.92      -0.16
      7.67       0.52       0.04
      7.66       0.55       0.07
      7.52      -0.41      -0.21
      7.07      -0.00       0.08
      7.09       0.77       0.19
      6.97       0.20       0.14
      6.14       0.27       0.91
      6.30       0.41       0.36
      7.24       0.48       0.12
      6.98       0.06      -0.28
      6.45      -0.64       0.20
      6.41       0.11       0.24
      6.83       0.18       0.38
      7.10       0.10       0.53
      7.12       0.63       0.35
      7.31       0.41      -0.03
      6.09       0.29       0.42
      6.10       0.16       0.57
      6.39       0.03       0.44
      6.40      -0.69       0.81
      6.71      -0.69       0.05
      6.93      -0.05      -0.14
      7.18       0.40       0.37
      7.01       0.16       0.49
      7.18       0.29       0.28
      7.64       0.40      -0.11
      7.01       0.58       0.92
      7.24       0.45       0.14
      7.18       0.46      -0.05
      6.98       0.61       0.35
      7.54       0.49      -0.22
      7.26      -0.15       0.14
      7.65       0.49       0.11
      7.43       0.57       0.21
      7.51       0.93      -0.12
      7.61       0.53       0.32
      7.38       0.15       0.03
      7.81       0.29       0.28
      8.06       0.03      -0.05
      8.02      -0.06      -0.29
      8.17      -0.23      -0.05
      7.56       0.16       0.66
      7.11       0.24       0.94
      7.15       0.05       0.01
      7.31      -0.59       0.12
      6.93      -0.09      -0.09
      7.63       0.47      -0.87
      7.29       0.49       0.10
      7.35       0.51       0.27
      7.29       0.23       0.22
      6.91       0.02       0.26
      7.39       0.25      -0.07
      7.39       0.54       0.08
      7.47       0.92       0.04
      6.89       0.12       0.09
      6.83       0.20       0.16
      7.33       0.17      -0.07
      7.47       0.12      -0.33
      7.37       0.20      -0.38
      7.94      -0.14      -0.55
      7.80      -0.29      -0.41
      7.27       0.28      -0.18
      6.72       0.46      -0.14
      6.44       0.30       0.25
      6.62       0.25       0.29
      6.99      -0.03       0.16
      7.15      -0.15       0.42
      6.67      -0.50       0.60
      6.91      -0.05       0.74
      7.03       0.11       0.30
      7.19       0.65       0.20
      6.79       0.33       0.37
      6.79       0.41       0.87
      6.74       0.21       0.76
      6.86       0.03       0.65
      7.05       0.01       0.42
      7.33       0.09       0.29
      7.85       0.06       0.00
      7.55      -0.10      -0.17
      7.69      -0.18      -0.15
      7.72       0.28      -0.12
      7.73       1.12       0.07
      7.90       0.56      -0.14
      7.90       0.40      -0.16
      8.03       0.07       0.05
      7.44      -0.09      -0.17
      7.14       0.07      -0.23
      7.07       0.19       0.08
      7.16      -0.01       0.11
      7.69      -0.14      -0.12
      7.74      -0.14      -0.36
      7.09       0.15      -0.16
      6.77      -0.00       0.40
      6.68       0.72       0.52
      6.63       0.31       0.54
      6.46       0.88       0.66
      6.77      -0.09       0.38
      7.34      -0.05       0.09
      7.06       0.26       0.20
      7.23       0.25       0.17
      7.90       0.96      -0.20
      7.23       0.73       0.23
      7.06       0.34       0.08
      7.18      -0.16       0.51
      7.42      -0.19       0.66
      7.68      -0.24       0.39
      8.02      -0.40       0.04
      8.42       0.02      -0.28
      8.34       0.46      -0.70
      8.34       0.84      -0.20
      7.96      -0.13      -0.71
      7.91      -0.11      -0.15
      8.29      -0.20      -0.30
      7.89      -0.33       0.00
      7.80      -0.10      -0.16
      7.74       0.06      -0.10
      7.61       0.25       0.44
      7.41       0.41      -0.03
      7.47       0.13      -0.02
      7.02       0.60       0.35
      7.07       0.27       0.19
      7.03       0.23       0.35
      7.64       0.31      -0.01
      7.72       0.29      -0.46
      7.84       0.27      -0.51
      8.14      -0.36      -0.62
      8.25       0.03      -0.65
      7.71       0.44      -0.07
      8.02       0.34      -0.23
      7.82       0.28      -0.20
      7.84       0.69       0.30
      7.29       0.14       0.13
      7.35       0.14       0.14
      7.21       0.26      -0.04
      7.11       0.13      -0.06
      7.00      -0.14      -0.04
      7.25       0.00       0.47
      7.38       0.02       0.09
      7.23       0.26       0.29
      7.37       0.11      -0.20
      7.14       0.30       0.02
      7.03       0.46       0.21
      7.11       0.32       0.46
      7.62       0.17      -0.02
      7.48       0.02       0.36
      7.91       0.20      -0.10
      7.95      -0.02      -0.33
      7.94       0.97      -0.23
      7.01       1.05       0.26
      7.44      -0.37       0.59
      8.04      -0.84      -0.06
      8.16      -0.73      -0.21
      7.91      -0.39       0.13
      7.98      -0.16      -0.31
      7.96       0.11       0.13
      8.08       0.22      -0.05
      8.49       0.20      -0.29
      8.65      -0.07      -0.48
      8.55       0.40      -0.11
      8.46       0.01      -0.52
      7.98      -0.10       0.39
      7.61      -0.10       0.11
      6.95      -0.37       0.48
      7.29       0.27       0.70
      7.53       0.69       0.17
      7.48       0.29      -0.25
      7.01      -0.22       0.36
      7.46      -0.18       0.33
      7.62       0.12       0.24
      7.62       0.24      -0.04
      7.96       0.07      -0.02
      7.90       0.03      -0.16
      7.35      -0.25       0.02
      7.11       0.26      -0.22
      7.47       0.19      -0.52
      7.80       0.42      -0.37
      7.26       0.36       0.00
      7.87       0.75       0.23
      7.91       0.21      -0.02
      7.93       0.16      -0.35
      8.36      -0.20      -0.18
      7.57       0.12      -0.12
      7.68      -0.78      -0.13
      7.86      -0.02      -0.43
      7.40       0.16      -0.19
      7.43       0.36      -0.02
      7.43       0.24      -0.25
      7.43       0.19      -0.19
      7.55       0.32      -0.14
      7.88       0.16      -0.23
      7.68       0.02       0.23
      7.53       0.24       0.31
      8.22      -0.00       0.19
      8.41       0.13      -0.07
      8.21       0.49      -0.43
      7.79       0.41       0.03
      8.40      -0.17      -0.07
      8.36      -1.22       0.09
      7.74      -0.44      -0.30
      8.00      -0.42       0.11
      7.85       0.05       0.30
      8.37       0.10      -0.19
      8.38      -0.05      -0.16
      8.01       0.06      -0.03
      7.98      -0.09      -0.14
      8.65       0.12      -0.30
      8.23       0.05      -0.33
      7.84       0.29       0.56
      7.77       0.56      -0.12
      7.83       0.15       0.07
      6.88       0.08       0.50
      7.34       0.43       0.48
      7.64       0.06      -0.06
      7.41      -0.24      -0.02
      7.11      -0.51       0.02
      7.12      -0.46      -0.14
      7.31      -0.21       0.15
      8.05       0.12       0.19
      8.20       0.27      -0.07
      7.75       0.10      -0.21
      7.51       0.00      -0.29
      7.94       0.03      -0.41
      7.30       0.15       0.08
      7.48       0.21      -0.04
      7.70       0.36       0.38
      7.51       0.01      -0.06
      7.51      -0.42      -0.25
      7.77      -0.12      -0.24
      8.19       0.33      -0.24
      7.59      -0.46      -0.07
      7.40      -0.36       0.31
      8.07       0.37      -0.31
      7.59       0.44      -0.18
      7.47      -0.11      -0.12
      7.19      -0.01       0.01
      7.56       0.17      -0.01
      8.13       0.17      -0.14
      8.72      -0.17      -0.71
      8.86      -0.14      -0.01
      8.75       0.07       0.02
      8.47       0.19      -0.26
      8.40       0.68      -0.02
      7.96       0.13      -0.36
      8.28      -0.12       0.16
      7.66      -0.04      -0.13
      7.59      -0.49       0.53
      7.80      -0.03       0.15
      7.79      -0.17       0.04
      7.87      -0.48       0.12
      7.85       0.24       0.24
      7.74       0.25       0.24
      8.03       0.03      -0.06
      7.98       0.67       0.11
      7.52       0.42       0.31
      7.59       0.44       0.31
      7.75       0.55       0.21
      7.11       0.12       0.34
      7.29       0.13       0.24
      7.69       0.08      -0.06
      7.84      -0.35       0.22
      7.81      -0.20       0.01
      7.61      -0.47       0.14
      7.38      -0.91      -0.55
      7.44      -0.74      -0.12
      7.85      -0.40      -0.09
      7.74       0.11      -0.04
      7.69       0.44      -0.31
      7.72       0.31      -0.61
      7.19       0.23      -0.28
      6.84       0.11       0.12
      6.87      -0.19       0.18
      7.26      -0.28      -0.08
      8.01       0.19      -0.47
      7.87      -0.07      -0.33
      7.72      -0.12       0.01
      8.00       0.08       0.31
      6.83       0.07       0.39
      7.16      -0.53       0.37
      7.60       0.30      -0.23
      6.62      -0.04      -0.16
      7.14      -0.24       0.05
      7.68      -0.03      -0.10
      7.56       0.09       0.08
      7.04       0.25       0.18
      8.31      -0.49      -0.09
      8.59       0.50      -0.18
      8.32       0.63      -0.25
      8.15       0.23      -0.45
      8.50       0.35      -0.61
      8.65       0.16      -0.44
      8.56       0.48      -0.03
      7.59       0.09      -0.01
      7.80       0.01      -0.34
      7.57       0.28       0.30
      8.18       0.07      -0.42
      7.01      -0.80       0.03
      4.71       0.02       0.26
      4.17       0.19       0.62
      5.28      -0.09       0.09
      5.38       0.85       0.25
      5.72       0.87       0.25
      5.70       0.47       0.29
      6.94       0.50       0.21
      7.71       0.08       0.21
      7.30       0.33       0.40
      7.33      -0.01       0.44
      7.54      -0.14       0.03
      7.85      -0.26       0.08
      7.35      -0.58       0.17
      8.03      -0.49      -0.62
      7.41      -0.05      -0.06
      7.14       0.24       0.57
      6.92       0.61       0.47
      7.41       0.32      -0.05
      7.46       0.45      -0.09
      7.33       0.03      -0.15
      7.19       0.34       0.12
      6.61      -0.21       0.04
      6.70      -0.44       0.19
      6.42      -0.30      -0.32
      6.78      -0.06      -0.43
      6.75       0.24      -0.00
      7.17       0.47      -0.21
      7.14       0.77      -0.44
      6.97       0.19       0.46
      7.47       0.02       0.12
      8.15       0.11      -0.46
      7.90       0.47      -0.07
      7.19      -0.01       0.33
      7.46       0.52       0.28
      7.37       0.59       0.58
      6.70      -0.00       0.98
      7.14       0.30       0.52
      6.95       0.11       0.04
      7.43       0.04      -0.22
      7.91       0.28      -0.43
      7.53      -0.43      -0.03
      7.95      -0.03      -0.14
      7.66       0.29      -0.10
      7.26       0.18       0.18
      7.70      -0.03       0.26
      7.28      -0.44      -0.11
      7.33      -0.03       0.26
      4.26      -0.03       0.66
      2.88       0.13       0.66
      2.94       0.37       0.88
      2.43       0.52       0.87
      2.95       0.85       0.57
      3.77       0.15       0.70
      6.51       0.37       0.64
      7.60      -0.03       0.52
      7.40       0.44       0.70
      7.48       0.11       0.46
      7.51      -0.32       0.08
      7.40      -0.31       0.28
      7.70      -0.21       0.14
      7.78      -0.28      -0.51
      7.26      -0.03      -0.32
      6.64       0.36       0.43
      6.77       0.34       0.34
      6.98       0.25       0.02
      6.91       0.13       0.05
      7.20       0.13      -0.21
      6.88       0.32       0.35
      7.39       0.02      -0.23
      7.06       0.09       0.13
      6.40      -0.66       0.52
      6.72      -0.67       0.24
      6.72      -0.31      -0.05
      6.96      -0.13       0.22
      6.49       0.55       0.29
      6.41       0.06       0.32
      7.35      -0.03       0.17
      7.32       0.13      -0.26
      7.32       0.00      -0.26
      6.85      -0.06       0.61
      6.86      -0.52       0.59
      8.36      -0.18      -0.19
      7.08       0.15       0.52
      6.51      -0.12       0.74
      6.76       0.19       0.37
      6.94       0.30       0.30
      6.75       0.26       0.09
      6.63       0.24      -0.06
      6.44       0.17       0.38
      6.83       0.02       0.21
      6.65      -0.15       0.42
      6.75      -0.28       0.15
      6.70      -0.18       0.04
      6.86      -0.16       0.37
      4.53      -0.15       0.67
      3.93       0.11       0.89
      4.26       0.42       0.77
      4.36       0.30       0.90
      4.14       0.26       0.53
      4.42      -0.04       0.67
      6.74       0.11       0.36
      7.68       0.51       0.30
      7.59       0.03       0.47
      7.75      -0.43       0.07
      7.54       0.12       0.06
      7.60      -0.37       0.28
      7.78      -0.43      -0.21
      7.25      -0.10      -0.16
      6.96       0.32       0.62
      6.35       0.37       0.64
      6.99      -0.06       0.33
      7.69      -0.12      -0.12
      7.77      -0.39       0.13
      7.68       0.11       0.05
      7.08       0.43       0.11
      6.85       0.12      -0.41
      6.77       0.25       0.66
      6.89      -0.22       0.07
      7.35      -0.48      -0.02
      7.81      -0.51      -0.27
      7.80      -0.69      -0.96
      7.21       0.82       0.30
      7.41       0.59      -0.33
      7.53       0.11      -0.26
      7.18       0.33      -0.21
      7.42       0.74      -0.09
      7.70      -0.13      -0.46
      7.59       0.22      -0.36
      7.77      -0.40      -0.00
      7.17      -0.31       0.12
      7.26      -0.20       0.26
      7.15       0.27       0.38
      7.01       0.25       0.45
      6.69       0.09      -0.16
      6.92       0.24       0.13
      6.64      -0.30       0.60
      6.74      -0.64       0.34
      7.09      -0.60      -0.12
      7.34      -0.55      -0.10
      7.57      -0.67      -0.53
      7.61      -0.71      -0.41
      5.24      -0.16       0.29
      3.73       0.20       0.44
      3.59       0.24       0.40
      3.84      -0.07       0.72
      4.06       0.06       0.52
      4.10       0.09       0.41
      7.04       0.26      -0.13
      7.76       0.55      -0.18
      7.88       0.45      -0.42
      7.66      -0.10       0.44
      7.06      -0.35       0.36
      8.01      -0.30       0.65
      7.21       0.25       0.50
      7.34       0.32      -0.22
      7.20       1.18       0.08
      7.35      -0.26      -0.03
      7.56      -0.51      -0.67
      6.58      -0.09       0.26
      7.24      -0.36       0.33
      7.21       0.14       0.62
      7.06       0.38       0.54
      7.28       0.72       0.21
      7.93       0.33      -0.27
      7.22      -0.19      -0.41
      7.63      -0.86      -0.42
      6.73      -0.77      -0.27
      5.69      -0.54       0.89
      6.40      -0.41       0.52
      7.37       0.13       0.02
      7.22       0.59       0.08
      7.36       0.02      -0.54
      7.35      -0.25      -0.13
      7.92       0.58      -0.62
      7.38      -0.42      -0.19
      7.36      -0.36       0.13
      6.39      -0.53       0.50
      6.57      -0.30       0.38
      6.61      -0.15       0.10
      6.63       0.00       0.04
      6.79      -0.11       0.02
      6.58      -0.04      -0.04
      6.82      -0.09      -0.31
      7.23      -0.31      -0.68
      6.75      -0.36      -0.26
      6.75      -0.32       0.35
      6.97      -0.01       0.33
      7.18      -0.15      -0.03
      4.30      -0.05       0.28
      3.09      -0.29       0.53
      3.96      -0.22       0.38
      4.77      -0.08       0.28
      4.67      -0.04       0.34
      4.82       0.23       0.32
      6.89       0.10      -0.56
      8.26      -0.30      -0.49
      8.44       0.15      -0.56
      8.45      -0.19      -0.46
      8.51       0.11      -0.35
      7.51       0.73       0.03
      7.55       0.32       0.27
      7.59       0.11       0.39
      8.31       0.11      -0.28
      8.08      -0.26      -0.47
      7.61      -0.28      -0.26
      7.65      -0.37      -0.08
      7.25       0.56       1.06
      6.39       0.15       0.28
      6.63       0.16       0.39
      7.36       0.19       0.48
      7.65      -0.21      -0.48
      7.97      -0.23      -0.71
      6.87       0.25      -0.71
      6.71       0.72      -0.40
      7.34      -0.21       0.01
      7.21      -0.25      -0.46
      6.41       0.11       0.98
      7.06       0.13      -0.03
      7.43      -0.27       0.19
      7.02       0.08       0.41
      6.80      -0.05       0.26
      6.71       0.13       0.28
      6.95      -0.14       0.21
      6.11      -0.38       0.77
      6.35      -0.98       1.10
      7.02      -0.51       0.66
      7.22      -0.79       0.21
      6.81      -0.61       1.02
      6.41      -0.70       0.32
      6.98      -0.64      -0.67
      6.93      -0.24      -0.30
      8.00      -0.48      -0.05
      7.57      -0.24      -0.27
      7.29      -0.29       0.16
      7.31      -0.32       0.30
      7.43      -0.41       0.41
      7.60      -0.57       0.12
      7.33      -0.79       0.23
      7.49      -0.21      -0.04
      7.14      -0.40      -0.56
      7.48       0.11      -0.68
      7.26      -0.04      -0.20
      7.96      -0.57       0.13
      6.64      -0.37      -0.06
      6.58       0.29       0.38
      6.87       0.11       0.19
      7.23      -0.35      -0.37
      7.87       0.07      -0.07
      7.85      -0.06      -0.26
      7.78      -0.23      -0.20
      7.34       0.34      -0.44
      7.25      -0.26       0.05
      7.75       0.21      -0.24
      7.32       0.57       0.40
      7.16      -0.55      -0.05
      7.78      -0.38      -0.01
      7.63      -0.44       0.57
      8.07      -0.16       0.23
      8.17      -0.42       0.07
      8.21      -0.15      -0.76
      8.16       0.11      -0.96
      7.28       0.45       0.36
      7.63       0.35      -0.56
      7.85       0.28      -0.46
      6.62       0.57       0.51
      6.69       0.17       0.80
      6.91       0.19       0.53
      7.21       0.15       0.29
      6.61       0.15      -0.12
      6.59       0.13       0.01
      8.08      -0.32      -0.14
      7.93      -0.14      -0.13
      8.10      -0.64       0.24
      7.90      -0.67       0.77
      6.26      -0.18       0.37
      7.09      -0.20      -0.31
      6.77      -0.08      -0.85
      7.20      -0.44      -1.01
      7.76      -0.11      -1.32
      7.88      -0.03      -0.62
      7.84      -0.35      -0.13
      7.94      -0.41       0.04
      7.73      -0.56       0.38
      7.75      -0.78      -0.20
      7.28      -0.41       0.33
      7.19      -0.93       0.23
      7.49      -0.41      -0.16
      7.58      -0.58      -0.22
      7.18       0.10      -0.08
      7.18      -0.56       0.09
      6.57      -0.15      -0.08
      6.32      -0.33       0.60
      6.74       0.09       0.83
      6.88      -0.08       0.68
      6.42      -0.05       0.21
      6.89       0.20       0.39
      6.52       0.56       0.44
      6.94       0.18      -0.38
      7.55      -0.31      -0.02
      8.02      -0.39       0.57
      8.20       0.11       0.30
      7.61      -0.48      -0.00
      6.90      -0.27       0.45
      6.81      -0.73       0.52
      7.01      -0.72       0.51
      7.11      -0.44       0.53
      6.62       0.02       0.33
      6.91       0.25       0.39
      7.34       0.25       0.41
      7.97       0.80      -0.94
      8.01       0.34       0.13
      7.65       0.69      -0.18
      7.75       0.30      -0.28
      7.11       0.57      -0.40
      7.26       0.58       0.05
      7.16       0.39      -0.49
      6.82       0.33      -0.20
      9.01      -0.12      -0.03
      8.37      -0.08      -0.34
      8.29      -0.39      -0.50
      7.69      -0.13       0.23
      7.94      -0.28       0.18
      8.25      -0.14       0.31
      7.87      -0.01      -0.46
      7.97      -0.35      -0.56
      8.09      -0.08      -0.90
      8.40       0.19      -0.69
      8.31       0.29      -0.80
      8.65      -0.31      -0.32
      8.53      -0.34      -0.62
      8.18      -0.62       0.01
      7.56      -0.16       0.39
      7.53      -0.58      -0.61
      7.56      -0.87      -0.31
      7.28      -0.27       0.17
      7.21      -0.11      -0.29
      7.44       0.39       0.02
      6.73       0.21       0.29
      6.68       0.25       0.06
      6.82      -0.13       0.01
      7.45      -0.50       0.31
      7.35      -0.52       0.73
      7.15       0.25       0.30
      6.99      -0.19       0.75
      7.89      -0.94       0.10
      8.11      -0.77      -0.28
      8.00      -0.64      -0.48
      8.15      -0.05      -0.09
      8.26      -0.25      -0.39
      7.65      -0.17      -0.31
      7.23      -0.08      -0.58
      7.60      -0.27       0.61
      7.16      -0.34       1.14
      6.80      -0.41       0.57
      7.21      -0.46       0.40
      7.10      -0.33       0.76
      7.76       0.26      -0.25
      7.29       0.46       0.02
      7.05       0.44       0.38
      7.34       0.57       0.18
      7.21       0.44       0.08
      7.72       0.67      -0.41
      7.53       0.47      -0.51
      7.72       0.07      -0.30
      8.22      -0.34       0.39
      7.84       0.33       0.11
      7.81       0.00       0.08
      8.26      -0.27       0.19
      8.28      -0.35       0.12
      7.33      -0.19       0.55
      7.73       0.29      -0.23
      7.65      -0.42      -0.40
      7.25      -0.01       0.79
      7.50      -0.21      -0.61
      7.53      -0.27      -0.50
      7.94      -0.15      -0.47
      8.46      -0.15      -0.75
      8.29       0.06      -0.11
      8.62      -0.36       0.20
      8.00      -0.79      -0.01
      8.02      -0.38      -0.31
      7.52       0.35      -0.35
      7.19      -0.30       0.72
      7.40       0.08       0.05
      7.29       0.44       0.52
      6.91       0.26       0.79
      7.18      -0.90       0.64
      8.05      -1.29       0.26
      7.83      -0.61       0.34
      7.57      -0.11       0.30
      7.83      -0.46      -0.02
      7.87      -0.51       0.07
      7.83      -0.87      -0.16
      8.07      -1.25       0.18
      7.89      -0.41      -0.19
      8.18      -0.35      -0.75
      8.39       0.04      -0.88
      8.59      -0.05      -0.81
      8.38      -0.06      -0.79
      7.42      -0.10       0.75
      7.31      -0.29       0.45
      7.24      -0.32       0.07
      7.50      -0.33      -0.07
      7.12       0.05       0.37
      7.69       0.21       0.40
      7.39       0.34       0.37
      7.78       0.00       0.17
      7.68       0.20      -0.15
      8.02       0.23      -0.25
      8.27       0.11      -0.35
      7.98       0.42      -0.03
      8.92      -0.19      -0.33
      8.40       0.13       0.04
      8.76      -0.24      -0.04
      8.30      -0.16       0.17
      8.76      -0.54       0.17
      7.77      -0.24       0.37
      7.68      -0.16      -0.33