# vtk DataFile Version 3.0
Low resolution, disturbed wind of YZ Slice at time = 27 seconds.
ASCII
DATASET STRUCTURED_POINTS
DIMENSIONS     1    26    12
ORIGIN    2008.00     635.00      15.00
SPACING      30.00      30.00      30.00
POINT_DATA             312
VECTORS DisYZ float
      6.27       1.06      -0.36
      5.04       0.02       0.37
      5.48       0.27       0.48
      6.30      -0.32       0.07
      4.55       0.27       0.06
      6.01       0.52      -0.43
      5.83       0.15      -0.06
      5.95       0.51      -0.29
      6.03       0.14      -0.29
      4.43       0.26       0.09
      5.23       0.34      -0.10
      5.68       0.70      -0.22
      4.27      -0.30       0.63
      4.84       0.32       0.19
      5.41       0.60       0.50
      4.48       0.20       0.13
      4.98      -0.07       0.03
      5.57      -0.35      -0.48
      5.59      -0.24       0.07
      6.22       0.05      -0.14
      7.58      -0.16       0.06
      4.72      -0.73       0.56
      6.25       0.08      -0.24
      7.22      -0.62       0.03
      6.81      -0.42       0.39
      6.43      -0.02       0.03
      8.41       1.40      -0.06
      5.59       0.29       0.31
      6.31       0.66      -0.54
      6.62       1.51      -0.10
      5.91       1.11       0.18
      6.00       1.05      -0.19
      6.84       0.18      -0.17
      6.72       0.62      -0.22
      6.89       0.14       0.14
      5.98       0.72      -0.22
      6.25       0.58       0.28
      6.77      -0.18      -0.86
      5.89      -0.11       0.59
      6.32      -0.32       0.11
      6.37       0.34       0.00
      5.87       0.43      -0.04
      6.06       0.06       0.01
      6.47      -0.26      -0.16
      6.81       0.01      -0.20
      7.07       0.11      -0.30
      6.64       0.02      -0.03
      7.81      -0.27       0.24
      7.66      -0.51      -0.11
      7.21      -0.34      -0.05
      7.99       0.24       0.30
      7.41       0.08       0.28
      7.87       0.90       0.28
      6.25       0.60       0.69
      7.12       0.54      -0.05
      7.51       0.81       0.21
      7.71       0.54       0.09
      6.56       0.44       0.62
      7.07       0.26       0.31
      7.65       0.25      -0.26
      7.25       0.59       0.04
      7.40       0.41       0.12
      6.96       0.49       0.66
      7.16       0.12       0.26
      7.01       0.29       0.08
      7.02      -0.29      -0.24
      6.38      -0.12       0.32
      6.22       0.21      -0.06
      6.98       0.68      -0.34
      7.41       0.53      -0.53
      7.90       0.22      -0.32
      7.28       0.45       0.14
      7.18       0.24      -0.12
      8.37       0.18      -0.12
      8.61      -0.27       0.04
      8.27      -0.28       0.28
      8.58      -0.16      -0.24
      8.01       0.04       0.08
      7.90      -0.19       0.37
      7.43      -0.11       0.66
      8.20       0.19      -0.02
      7.77       0.46      -0.23
      7.16       0.31      -0.16
      6.79       0.33       0.68
      6.89       0.29       0.34
      7.80       0.22      -0.08
      8.06      -0.52       0.10
      7.82      -0.43      -0.00
      8.12       0.10      -0.18
      7.63       0.06       1.00
      8.08      -0.39      -0.22
      8.22       0.22      -0.55
      7.30       0.45       0.03
      7.37       0.07      -0.12
      8.12      -0.11      -0.00
      7.99       0.47      -0.37
      8.73      -0.17      -0.23
      7.99      -0.15       0.01
      8.15       0.58      -0.41
      8.91      -0.24      -0.11
      8.81      -0.66      -0.19
      8.69      -0.31      -0.02
      8.57      -0.13      -0.14
      8.17       0.17      -0.06
      7.91       0.08       0.75
      7.69      -0.52       0.72
      8.57      -0.19      -0.31
      8.11       0.07       0.20
      7.50       0.33       0.16
      7.71       0.36       0.15
      7.82       0.17       0.39
      7.99      -0.14       0.48
      8.29       0.00       0.01
      8.79      -0.09      -0.20
      8.54       0.05       0.32
      8.57       0.31       0.14
      8.96       0.07      -0.23
      8.01      -0.02      -0.68
      8.64       0.07      -0.52
      8.07       0.27       0.12
      7.91       0.29       0.14
      8.17      -0.11       0.21
      8.42      -0.43      -0.28
      7.39       0.05       0.34
      8.55       0.03      -0.26
      8.58       0.10       0.02
      9.36       0.30       0.01
      8.99       0.40      -0.39
      9.27       0.49      -0.04
      9.17       0.54      -0.19
      7.32       0.02       0.76
      8.81      -0.22      -0.30
      8.67      -0.42      -0.24
      8.30      -0.36      -0.25
      8.09       0.03      -0.02
      7.50      -0.09      -0.27
      7.52       0.30       0.14
      7.20       0.54       0.82
      8.52       0.14       0.18
      8.73       0.10       0.40
      8.71       0.27       0.17
      9.34      -0.15      -0.07
      9.15       0.17      -0.22
      8.51      -0.24      -0.06
      9.50      -0.18      -0.19
      9.28       0.33      -0.18
      7.85       0.64       0.47
      8.09       0.17       0.55
      8.14       0.36       0.03
      8.82       0.06      -0.22
      9.13       0.22      -0.34
      9.21       0.24      -0.47
      9.14       0.40      -0.19
      9.23       0.25      -0.66
      9.55       0.20       0.08
      9.16       0.13      -0.01
      8.39      -0.27       0.49
      8.77      -0.91       0.22
      8.98      -0.65      -0.59
      8.23      -0.26      -0.23
      7.95      -0.48      -0.05
      8.87      -0.31      -0.06
      8.72       0.05       0.18
      8.78       0.15       0.20
      9.04      -0.28       0.20
      8.84      -0.31       0.21
      9.21      -0.10       0.11
      9.66      -0.22       0.14
      9.34      -1.06      -0.10
      9.88      -0.72      -0.33
     10.09      -0.23      -0.38
      9.60      -0.10       0.12
      9.61       0.02       0.30
      8.71       0.43       0.60
      8.39       0.42       0.34
      8.89       0.22      -0.14
      9.07      -0.17      -0.16
      9.11      -0.11      -0.39
      9.13      -0.43      -0.17
      9.33      -0.54      -0.56
      9.58      -0.49      -0.15
     10.24      -0.59      -0.07
      8.42      -0.94       0.46
      8.19      -0.86      -0.00
      9.75      -0.62      -0.39
      9.13      -0.42      -0.05
      8.05      -0.24       0.22
      9.37      -0.13      -0.30
      9.32       0.01       0.20
      9.12      -0.34       0.14
      8.75      -0.37       0.05
      8.53      -0.22       0.48
      9.86      -0.37       0.03
      9.22      -0.70       0.50
      9.87      -0.88      -0.07
      9.66      -0.29      -0.28
      9.75      -0.30      -0.57
      9.67      -0.21      -0.05
      9.45      -0.02       0.59
      8.84      -0.34       0.53
      8.97      -0.49       0.39
      9.08      -0.27       0.20
      8.91      -0.49      -0.06
      9.45      -1.09      -0.01
      9.67      -0.81      -0.28
      9.47      -0.63      -0.14
      9.57      -0.52       0.04
      9.67      -0.89      -0.05
      9.02      -0.89       0.03
      9.57      -0.75       0.14
      9.53      -0.91      -0.44
      9.01      -0.77      -0.29
      9.22      -0.42      -0.24
      9.42      -0.08      -0.27
      8.89       0.08       0.33
      8.78       0.19       0.18
      8.96      -0.10       0.38
      9.64      -0.66       0.06
      9.53      -0.43       0.49
      9.37      -0.94       0.40
     10.08      -0.68      -0.30
      9.79      -0.63      -0.33
      9.21      -0.54      -0.54
      8.54      -0.85      -0.30
      8.87      -0.52       0.43
      9.01      -0.43       0.64
      8.79      -0.58       0.39
      9.35      -0.90       0.01
      9.19      -0.45       0.16
      9.84      -1.18       0.00
      9.49      -1.22      -0.29
      9.28      -1.47      -0.61
      9.29      -1.50      -0.16
      9.77      -1.28      -0.49
      8.44      -0.30       0.28
      8.92      -0.28      -0.09
      9.37      -0.36      -0.45
      9.25      -0.46      -0.10
      9.59      -0.34      -0.52
      9.46      -0.54      -0.11
      8.77      -0.43       0.35
      9.42      -0.89       0.09
      9.61      -1.17       0.37
      9.89      -1.21       0.18
      9.81      -1.13       0.00
      9.82      -0.46      -0.00
     10.25      -0.40      -0.44
     10.17      -0.57      -0.10
      9.97      -0.99      -0.40
      9.13      -1.06      -0.11
      9.00      -0.97       0.12
      8.99      -1.36       0.65
      9.43      -1.17       0.27
      9.77      -0.76      -0.47
      9.41      -0.92       0.47
      9.98      -0.97      -0.27
      9.89      -0.93       0.19
      9.51      -1.17      -0.27
     10.45      -1.09      -0.54
      9.68      -1.25      -0.02
      8.89      -0.34       0.27
      9.43      -0.06       0.01
      9.66       0.00      -0.15
      9.72      -0.50      -0.19
      9.34      -0.64      -0.29
      9.37      -0.73       0.08
      9.66      -0.99      -0.09
      9.68      -0.82       0.15
     10.27      -0.76      -0.28
     10.29      -0.45      -0.13
      9.94      -0.46      -0.10
     10.46      -0.55      -0.26
     10.41      -0.67      -0.03
     10.51      -0.67      -0.12
     10.27      -0.66      -0.08
      9.30      -1.01       0.14
      9.53      -1.57       0.14
      9.33      -1.50       0.55
      9.20      -0.95      -0.02
      9.59      -0.86      -0.50
      9.99      -1.17       0.04
     10.11      -1.19      -0.26
     10.02      -1.16       0.40
      9.67      -1.01      -0.06
     10.02      -1.14       0.03
     10.61      -1.40       0.07
      9.35      -0.50       0.15
      9.37      -0.37       0.12
      9.67      -0.52      -0.03
      9.53      -0.92      -0.31
      9.73      -1.04      -0.43
      8.93      -0.57      -0.09
      9.13      -0.09       0.10
      9.36      -0.10       0.03
     10.34      -0.71       0.06
     10.25      -0.64      -0.30
      9.98      -0.61       0.01
     10.40      -0.78      -0.12
     10.01      -0.69      -0.18
     10.09      -0.76       0.13
     10.12      -0.49       0.23
     10.24      -0.60       0.14
      9.17      -0.61       0.35
      9.46      -0.71       0.31
      9.34      -0.64      -0.08
      9.45      -0.65      -0.13
      9.70      -0.66      -0.15
     10.17      -1.19       0.08
     10.35      -1.02      -0.01
     10.08      -1.12      -0.16
      9.76      -1.10       0.53
      9.99      -0.90       0.13
