# vtk DataFile Version 3.0
Low resolution, disturbed wind of YZ Slice at time = 48 seconds.
ASCII
DATASET STRUCTURED_POINTS
DIMENSIONS     1    26    12
ORIGIN    1630.00     635.00      15.00
SPACING      30.00      30.00      30.00
POINT_DATA             312
VECTORS DisYZ float
      5.74       0.42       0.64
      8.16       1.68       0.00
      5.17       0.39       0.19
      6.32       1.39       0.63
      5.07       0.95       0.32
      5.57       0.02       0.00
      4.59       0.28       0.19
      6.93       0.59      -0.50
      5.12       0.86       0.68
      4.56       1.12      -0.27
      3.44       0.82       0.13
      4.05       0.50      -0.56
      4.17       0.60       0.12
      5.17       0.53      -0.53
      4.47      -0.26       0.20
      5.27      -0.04      -0.28
      3.13       0.27       0.32
      5.68       0.26      -0.18
      5.71       0.92      -0.18
      5.74      -0.14       0.03
      4.31      -0.51       0.34
      4.89      -0.23       0.14
      6.01      -0.27      -0.25
      5.18      -0.19       0.22
      5.98      -0.97       0.29
      7.45      -0.69      -0.16
      6.55      -0.35       0.27
      7.40      -0.04      -0.01
      6.70       1.55       0.71
      6.28       0.88       0.25
      5.59       0.86       0.25
      7.02       0.39      -0.19
      6.60      -0.26       0.59
      7.11      -0.21       0.02
      7.19       0.01       0.22
      4.75       0.87       0.24
      5.25       0.31      -0.25
      6.24       0.66      -0.40
      7.16       0.45      -0.51
      5.98       0.30       0.24
      6.97       0.05      -0.78
      5.87       0.59       0.40
      6.76       0.68      -0.84
      6.72      -0.22       0.04
      7.03       0.18       0.26
      6.59       0.05       0.57
      6.56      -0.65      -0.05
      7.74      -0.36      -0.26
      6.81      -0.00       0.09
      7.87      -0.02       0.31
      6.76       0.47       0.61
      7.61      -0.55       0.09
      8.51       0.25      -0.20
      8.27       0.43       0.11
      8.55       1.17       0.51
      7.68       0.53       0.13
      7.22       0.90      -0.10
      7.43       0.55       0.45
      7.50       0.40      -0.30
      7.75       0.51      -0.05
      7.80       0.18      -0.33
      7.80       0.15      -0.27
      7.70       0.20       0.41
      7.67       0.39       0.50
      6.87      -0.08       0.29
      7.38      -0.43       0.33
      7.59      -0.09      -0.48
      7.48      -0.43      -0.28
      7.11      -0.60      -0.07
      7.79      -0.84      -0.11
      7.37      -0.49       0.06
      7.69      -0.55      -0.21
      8.51      -1.42       0.24
      8.89      -0.89      -0.44
      7.83      -0.46       0.58
      8.23      -0.96       0.38
      8.98      -0.52      -0.09
      8.29      -0.90       0.26
      8.77       0.55      -0.64
      8.49       0.15      -0.07
      8.36       0.19       0.38
      8.11       0.07       0.85
      7.65       0.81       0.03
      7.49       0.52      -0.07
      7.58       0.04      -0.30
      7.83      -0.14      -0.03
      8.05      -0.72       0.22
      8.25      -0.50      -0.60
      7.26      -0.18       0.23
      6.86       0.05       0.76
      7.25       0.68       0.28
      7.80       0.38      -0.71
      8.32       0.56      -0.29
      7.82      -0.05      -0.42
      7.53      -0.41       0.66
      7.48      -0.55      -0.28
      8.37      -0.71       0.19
      8.51      -0.43      -0.37
      8.59      -0.68      -0.13
      8.89      -0.70      -0.02
      8.64      -0.95       0.04
      7.92      -0.16       0.16
      8.52      -0.40      -0.21
      8.19      -0.10       0.18
      8.30      -0.89       0.55
      8.62      -0.41      -0.03
      8.54      -0.54      -0.13
      8.75      -0.14      -0.11
      9.03       0.08       0.14
      7.64      -0.51       0.30
      7.31      -0.61      -0.13
      7.76      -0.47      -0.22
      7.73      -0.79      -0.33
      8.31      -0.92      -0.31
      8.15      -0.17       0.20
      8.14       0.43       0.13
      8.35       0.24       0.26
      8.55       0.18      -0.06
      8.49       0.20       0.09
      8.36      -0.10      -0.14
      8.20       0.15      -0.18
      8.06      -0.04       0.95
      7.41      -0.12      -0.09
      8.49      -0.38      -0.17
      8.04       0.07      -0.36
      8.99      -0.28       0.02
      9.80      -0.20       0.05
      9.36      -0.15      -0.22
      9.12       0.10      -0.43
      9.04       0.24      -0.03
      8.46      -0.08       0.59
      8.77      -0.22       0.26
      8.83      -0.41       0.13
      9.28      -0.64      -0.53
      8.34      -0.52      -0.06
      9.05       0.17      -0.18
      8.70       0.70      -0.57
      8.57      -0.01       0.17
      8.56       0.16      -0.19
      8.78      -0.25      -0.43
      9.12      -0.25      -0.10
      9.33      -0.07      -0.22
      9.36       0.19       0.31
      8.30       0.28       0.18
      8.64       0.29       0.13
      8.52      -0.01      -0.04
      8.32       0.10       0.12
      7.89      -0.10       0.35
      7.68      -0.03       0.46
      8.33      -0.49      -0.12
      9.17      -0.19      -0.29
      8.95       0.15       0.00
      9.30       0.17       0.33
      9.22       0.32      -0.24
      9.10      -0.15      -0.52
      9.08      -0.63      -0.29
      8.57      -0.35       0.40
      8.85      -0.37       0.17
      9.02       0.02      -0.54
      9.27       0.02      -0.13
      9.13       0.02      -0.22
      9.31       0.11      -0.34
      8.53      -0.17      -0.17
      9.08      -0.34      -0.04
      9.18      -0.17      -0.16
      9.36      -0.62      -0.16
      8.66      -0.81      -0.41
      9.40      -0.62      -0.32
      9.00      -0.27       0.15
      8.62      -0.33       0.29
      8.79      -0.48       0.01
      8.07      -0.07      -0.17
      8.56       0.03       0.75
      8.10      -0.68       0.38
      8.12      -0.69       0.65
      7.89      -0.15       0.19
      8.87      -0.06       0.03
      8.60       0.31       0.58
      8.81       0.20       0.15
      8.97      -0.34      -0.07
      9.07      -0.68      -0.07
      9.24      -0.56      -0.51
      8.74      -0.40       0.27
      9.00      -0.09       0.12
      8.73       0.22      -0.21
      9.16      -0.49      -0.35
      8.43      -0.47       0.16
      9.71      -0.56      -0.21
      9.17      -0.66      -0.02
      9.67      -0.36      -0.56
      9.81      -0.58      -0.29
      9.83      -0.55      -0.44
      9.65      -0.42      -0.11
      8.71      -0.86      -0.00
      8.73      -0.78       0.02
      8.99      -0.63       0.29
      8.25      -0.47      -0.23
      8.43      -0.57       0.60
      8.61      -0.36       0.36
      8.45      -0.27       0.61
      8.08      -0.57       0.61
      9.72      -0.73      -0.50
      8.93       0.12       0.51
      9.79      -0.45       0.19
      8.82       0.08       0.38
      9.15      -0.15       0.24
      9.57      -0.07      -0.34
      9.86       0.01      -0.78
      8.97      -0.02       0.20
      8.59       0.13       0.34
      8.90       0.13      -0.12
      9.19       0.04       0.30
      9.40      -0.46       0.39
      9.13      -0.53       0.33
      9.18      -0.36       0.08
     10.03      -0.45      -0.59
      9.85      -0.66      -0.27
      9.64      -0.39      -0.13
      9.21      -0.46      -0.05
      8.99      -0.91      -0.04
      8.78      -1.38       0.32
      8.75      -1.26       0.41
      8.52      -0.96       0.37
      9.15      -0.95       0.34
      9.01      -0.93       0.30
      8.54      -0.44       1.02
      8.04      -0.63       0.63
     10.35      -0.57      -0.75
     10.16      -0.52      -0.26
      9.08      -0.24      -0.07
      8.86       0.17       0.38
      9.36       0.29      -0.09
      9.92      -0.40      -0.22
     10.65      -0.27      -0.40
      9.06      -0.56      -0.08
      9.51      -0.71       0.08
      9.60      -0.52       0.04
      9.10      -0.36       0.42
      9.21      -0.48       0.22
      9.38      -0.61      -0.14
      9.54      -0.42       0.05
      9.74      -0.49      -0.32
      9.51      -0.40      -0.15
      8.91      -1.34       0.05
      9.36      -1.06       0.22
     10.52      -1.20       0.38
     10.02      -1.22      -0.15
      9.85      -1.03       0.24
      9.19      -0.71       0.44
      9.43      -0.62       0.20
      9.32      -0.66       0.25
      9.27      -0.61       0.30
      9.53      -0.13      -0.25
     10.21      -0.62      -0.55
      9.75       0.03       0.02
      8.96      -0.10       0.21
      9.31      -0.26       0.18
     10.02      -0.54      -0.24
     10.19      -1.04      -0.39
     10.63      -0.62      -0.29
      8.84      -0.09       0.72
      9.51      -0.85      -0.23
      9.45      -0.61      -0.67
      9.31      -0.47       0.52
      9.21      -0.69       0.48
      9.20      -0.43      -0.17
     10.00      -1.02      -0.21
      9.63      -0.98      -0.04
     10.00      -1.03       0.00
      9.70      -1.19      -0.16
      9.51      -1.32       0.21
      9.95      -1.14       0.28
      9.83      -1.18       0.17
      9.75      -1.06      -0.10
      9.86      -0.76       0.24
      9.63      -0.67       0.20
      9.73      -0.32      -0.06
      9.64      -0.22       0.20
      9.66      -0.69      -0.20
      8.26      -0.36       0.65
      9.02      -0.35       0.09
      8.97      -0.31       0.27
      9.66      -0.17      -0.06
     10.21      -0.76       0.38
     10.01      -0.68      -0.61
      9.90      -1.02      -0.37
      9.43      -0.14       0.65
      9.28      -0.11       0.31
      9.48      -0.39      -0.07
      9.44      -0.48       0.15
      9.10      -0.62       0.66
      9.16      -0.60       0.16
      9.49      -0.44       0.01
      9.85      -0.73       0.19
      9.86      -0.74      -0.03
      9.94      -0.82      -0.04
      9.72      -0.98       0.19
      9.51      -0.96       0.15
      9.81      -0.81      -0.14
      9.69      -1.02      -0.12
      9.61      -0.69       0.21
      9.99      -0.78      -0.06
      9.84      -0.66      -0.30
      9.52      -0.73       0.05
      9.85      -0.56       0.39
      9.00      -0.47       0.41
      9.63      -0.39       0.41
      9.88      -0.91       0.03
      9.97      -0.93       0.08
      9.78      -0.97       0.27
     10.80      -1.23      -0.38
     10.63      -1.41      -0.05
