# vtk DataFile Version 3.0
Low resolution, disturbed wind of XZ Slice at time = 24 seconds.
ASCII
DATASET STRUCTURED_POINTS
DIMENSIONS    47     1    12
ORIGIN     635.00    1000.00      15.00
SPACING      30.00      30.00      30.00
POINT_DATA             564
VECTORS DisXZ float
      3.90       0.18       0.07
      4.08      -0.25       0.23
      3.99      -0.87       0.14
      4.41      -0.58       0.06
      4.64      -0.16      -0.20
      4.66      -0.02       0.02
      4.88       1.00       0.37
      5.51       0.30      -0.34
      4.98      -0.56      -0.11
      4.44       0.35       0.40
      5.14       0.12      -0.18
      5.18       0.31      -0.23
      3.86       0.54       0.64
      5.09       0.46       0.80
      5.57       0.49      -0.12
      5.91      -0.26       0.35
      5.10       0.11       0.05
      3.77       0.18       0.81
      3.54       0.15       0.22
      4.68       0.27       0.52
      5.21      -0.81      -0.18
      3.87      -0.35       0.94
      4.33       0.29       0.42
      3.06      -0.51       0.66
      4.44      -0.26      -0.48
      4.46       0.99      -0.02
      4.73       0.50      -0.07
      5.10       0.10      -0.10
      4.59       0.51       0.21
      4.30      -0.38      -0.38
      4.83      -0.33      -0.03
      4.07      -0.32       0.18
      4.11      -0.95      -0.30
      4.95       0.42      -0.06
      5.01       0.34      -0.19
      5.06       0.13      -0.42
      5.79       0.96      -0.17
      6.60       1.03      -0.65
      5.94      -0.42       0.39
      5.22       0.90       0.49
      5.41      -0.64      -0.30
      3.98       0.84       0.73
      5.60       0.22      -0.37
      5.64       0.37       0.04
      5.10      -0.49      -0.29
      5.28       0.31       0.21
      4.13       0.16       0.50
      4.93       0.18       0.36
      5.47      -0.42       0.46
      5.74      -0.15      -0.01
      5.94       0.65       0.06
      6.11       0.44      -0.19
      5.98       0.35       0.05
      5.93       0.05       0.39
      6.32       0.14       0.06
      6.63       0.45      -0.19
      5.95      -0.32       0.32
      5.99      -0.13      -0.04
      6.73       0.17      -0.01
      2.36      -0.17       0.66
      2.55       0.33       0.41
      2.51       0.70       0.04
      3.63      -0.32       0.28
      3.33      -0.67       0.27
      1.70       0.08       1.42
      6.11       0.10      -0.08
      5.63      -0.69       0.60
      6.82      -0.96       0.34
      6.80      -0.62      -0.33
      6.87      -0.89       0.40
      6.46      -0.60       1.12
      5.73      -0.35      -0.33
      5.91      -0.27      -0.40
      6.16       1.12       0.69
      6.07       0.95       0.26
      6.57       0.45       0.18
      5.92       0.15       0.16
      6.46       0.39      -0.11
      6.37       0.08       0.20
      6.10       0.81      -0.06
      6.70       1.04       0.04
      6.38      -0.18       0.01
      5.85      -0.56      -1.17
      6.57       0.51      -0.18
      7.58       0.03      -0.32
      7.46       0.14      -0.66
      6.98       0.81      -0.33
      6.70       0.31      -0.10
      5.86       0.50       0.43
      6.36       0.08      -0.01
      6.63       0.17      -0.45
      7.69      -0.47      -0.52
      6.55      -0.15      -0.31
      5.67      -0.20       0.02
      6.95       0.12       0.32
      5.98      -0.15       0.78
      6.37       0.13       0.43
      6.57       0.25       0.33
      6.85       0.26      -0.09
      6.92       0.38      -0.11
      6.42       0.02       0.20
      6.69      -0.10       0.19
      6.52      -0.17       0.39
      6.50      -0.14       0.11
      6.42      -0.12      -0.07
      6.92       0.01       0.10
      3.43      -0.02       0.65
      3.82       0.21       0.70
      3.96       0.36       0.73
      4.22       0.19       0.88
      4.02       0.22       0.46
      4.12      -0.43       0.78
      7.77      -0.49       0.31
      7.59       0.36       0.26
      7.37      -0.13       0.44
      7.43      -0.50       0.10
      7.33      -0.07       0.00
      7.37      -0.45       0.51
      7.23      -0.42      -0.08
      6.65       0.08      -0.20
      6.43       0.48       0.66
      6.27       0.20       0.58
      7.07      -0.28      -0.03
      7.06      -0.03      -0.10
      7.56      -0.51       0.40
      7.36       0.21       0.34
      6.71       0.53       0.13
      6.93       0.33      -0.24
      6.76       0.27       0.36
      6.62      -0.22       0.11
      7.01      -0.64       0.09
      7.29      -0.71      -0.20
      7.36      -0.81      -0.80
      6.85       1.22       0.37
      6.97       1.00      -0.23
      7.16       0.39      -0.04
      6.87       0.44      -0.35
      7.21       0.64      -0.17
      7.50      -0.24      -0.57
      7.21       0.22      -0.26
      7.34      -0.31       0.34
      7.37      -0.03       0.73
      7.94      -0.09       0.41
      7.73       0.36       0.24
      7.71       0.37       0.33
      6.53       0.16       0.32
      6.17      -0.05       0.14
      6.58       0.24       0.85
      7.06      -0.07       0.32
      7.14      -0.33       0.21
      7.55      -0.70       0.10
      7.70      -0.56      -0.02
      7.13      -0.78       0.53
      7.08      -0.42       0.52
      4.04      -0.04       1.05
      4.52       0.44       0.65
      4.38       0.35       0.87
      4.35       0.25       0.66
      4.84       0.81       0.33
      4.83       1.38       0.22
      7.90       0.84       0.13
      8.17       0.56       0.08
      8.36      -0.11       0.19
      7.73       0.27       0.33
      8.27      -0.16       0.00
      8.59      -0.11      -0.10
      8.51      -0.25      -0.09
      8.13       0.42       0.27
      7.01       0.40       0.43
      7.10       0.17       0.54
      8.40      -0.29       0.04
      7.93      -0.14      -0.31
      8.09      -0.08      -0.24
      7.82       0.19       0.28
      6.90      -0.00      -0.42
      7.37       0.25       0.80
      7.60      -0.20      -0.26
      8.18      -0.35      -0.44
      8.33      -0.24      -0.39
      7.61      -0.39      -0.34
      7.54      -0.58       0.28
      8.27      -0.45      -0.35
      8.10      -0.19      -0.52
      7.88      -0.04      -0.10
      7.81       0.44       0.07
      8.20       0.43      -0.32
      8.24      -0.09      -0.47
      8.44      -0.57      -0.62
      6.65      -0.93       0.67
      7.15      -0.40       0.82
      7.70       0.52       0.72
      6.65      -0.25       0.63
      6.35      -0.20       0.22
      6.61       0.00      -0.04
      7.25      -0.08      -0.15
      7.34      -0.03       0.33
      7.33      -0.35       0.20
      7.28      -0.53       0.17
      7.34      -0.78       0.13
      7.35      -0.47       0.40
      7.07      -0.30       0.66
      3.00       0.01       0.75
      3.31      -0.16       0.74
      3.71      -0.12       0.88
      3.97      -0.04       0.61
      4.19       0.09       0.34
      4.19       0.32       0.25
      8.35       0.85      -0.08
      8.08       0.62       0.04
      8.40       0.61       0.35
      8.53       0.27       0.64
      8.47      -0.22      -0.12
      8.56      -0.02       0.05
      8.21       0.11       0.04
      8.23      -0.08       0.39
      8.29       0.12       0.15
      8.50      -0.06      -0.06
      8.89      -0.16      -0.39
      8.98       0.09       0.19
      7.98      -0.28       0.10
      7.96       0.03       0.19
      7.56      -0.10       0.35
      7.76      -0.58       0.71
      8.01      -1.03       0.00
      8.12      -0.47       0.34
      8.29      -0.48       0.26
      8.43      -0.47       0.52
      8.47      -0.69       0.21
      8.41      -0.98      -0.03
      8.43      -0.72       0.07
      8.46      -0.20       0.04
      8.91      -0.21      -0.09
      8.55       0.00      -0.16
      9.00       0.06      -0.27
      9.39       0.25      -0.40
      7.85      -1.05       0.60
      7.55      -0.51       0.66
      7.15       0.07       1.12
      7.35       0.44       0.52
      8.02       0.42      -0.29
      7.86      -0.04      -0.63
      8.33       0.35      -0.72
      7.60       0.15      -0.01
      7.21       0.01       0.52
      7.57       0.32       0.49
      7.65      -0.09       0.49
      7.96      -0.13       0.49
      8.19      -0.01       0.30
      6.48       0.13      -0.03
      7.06       0.22      -0.34
      6.55      -0.10       0.10
      6.45      -0.22       0.25
      6.63      -0.50       0.38
      7.23      -0.43       0.03
      8.12       0.42      -0.18
      8.55       1.13       0.51
      8.39       0.53       0.67
      8.55       0.04       0.37
      8.65      -0.08       0.06
      8.67      -0.17       0.10
      9.02      -0.12      -0.15
      8.92       0.05       0.23
      8.86       0.46      -0.31
      8.86       0.50      -0.11
      8.76      -0.13      -0.01
      8.52      -0.37       0.24
      8.28       0.04       0.15
      7.98       0.09       0.36
      7.80       0.14       0.37
      8.02      -0.07       0.40
      7.70       0.08       0.54
      8.28      -0.97       0.38
      8.47      -0.58       0.24
      8.10      -0.49       0.30
      8.34      -0.57       0.18
      8.30      -0.85      -0.02
      8.49      -0.68       0.29
      8.76      -0.48       0.16
      8.82      -0.38       0.00
      9.24      -0.31      -0.03
      8.98       0.17      -0.22
      8.97       0.30       0.09
      7.57      -0.90       0.89
      8.09       0.11       1.09
      8.62       0.51       0.91
      8.67      -0.17      -0.09
      8.68      -0.23      -0.71
      8.44      -0.87      -0.43
      8.29       0.29      -0.54
      8.69      -0.29      -0.20
      8.50      -0.13       0.44
      7.98      -0.16       0.57
      8.35       0.04       0.74
      8.29      -0.11       0.50
      8.67      -0.59       0.21
      8.38      -0.72      -0.34
      8.91      -0.92      -0.53
      8.80      -0.17       0.21
      8.38       0.12       0.14
      8.68       0.18      -0.11
      9.09       0.23      -0.25
      9.25       0.37      -0.01
      9.59       0.40       0.18
      8.87       1.15       0.49
      9.16       0.71       0.50
      9.75      -0.17      -0.07
      9.19      -0.28       0.06
      9.16      -0.18       0.12
      8.81      -0.32       0.22
      8.89      -0.40      -0.16
      9.29      -0.44      -0.41
      9.20       0.18      -0.19
      8.66      -0.12       0.65
      8.38      -0.22       0.11
      8.74      -0.03       0.02
      9.19       0.32       0.36
      8.67       0.12       0.59
      8.30       0.04       0.37
      8.59      -0.43      -0.39
      8.88      -0.75      -0.05
      8.89      -0.60       0.06
      9.15      -0.42       0.06
      9.25      -0.66      -0.05
      9.02      -0.86      -0.11
      9.35      -0.85       0.00
      9.89      -0.70      -0.19
      9.82      -0.82      -0.19
      9.48      -0.97      -0.10
      9.73       0.00      -0.06
      8.34      -1.20       0.96
      8.79      -1.85       0.64
      9.26      -1.76       0.38
      9.24      -1.43      -0.30
     10.04      -1.18      -0.68
      8.83      -0.40      -0.11
      8.51       0.13       0.22
      8.62      -0.55       0.19
      8.17      -0.93       0.34
      8.06      -0.47       0.51
      8.25      -0.40       0.55
      8.78      -1.01       0.46
      9.39      -0.86       0.36
      9.57      -0.63      -0.15
      8.69      -1.13      -0.03
      8.45      -1.53       0.27
      8.20      -1.36       0.08
      7.91      -1.04      -0.01
      8.03      -1.03      -0.05
      8.53      -0.93       0.06
      8.83      -0.27       0.40
      9.03      -0.19       0.72
      9.11      -0.52       0.56
      9.14      -0.23       0.42
      8.88      -0.38       0.36
      8.72      -0.81       0.36
      8.82      -0.86       0.16
      8.75      -0.80      -0.48
      8.90      -0.52      -0.49
      9.07      -0.08      -0.18
      9.32      -0.18       0.26
      9.71      -0.21       0.03
      9.85       0.03      -0.22
      9.20      -0.12       0.14
      8.94       0.10       0.53
      9.21       0.33       0.18
      9.34      -0.11      -0.41
      9.23      -0.23      -0.26
      8.97      -0.29       0.07
      9.22      -0.62       0.13
      9.65      -1.00      -0.03
      9.59      -1.21      -0.18
      9.42      -0.89       0.02
      9.45      -0.60       0.03
      9.56      -0.68      -0.19
      9.80      -0.81       0.03
      9.59      -0.68       0.65
      8.77      -0.31       0.66
      8.65      -0.72       0.54
      8.77      -1.07       0.46
      9.16      -0.95       0.26
      9.25      -0.18       0.09
      9.29      -0.18       0.11
      8.77      -0.33       0.16
      8.84      -0.30       0.46
      9.08      -0.59       0.46
      9.06      -0.69       0.26
      8.78      -0.82       0.32
      9.03      -0.74       0.41
      9.57      -1.06       0.07
     10.15      -1.04       0.19
      9.78      -0.51       0.26
      8.34      -0.82       0.46
      8.18      -1.03       0.23
      8.59      -1.19      -0.07
      8.86      -1.05      -0.07
      8.74      -1.18       0.06
      8.58      -1.01       0.11
      8.56      -0.81       0.29
      8.62      -0.97       0.39
      8.87      -1.14       0.27
      8.89      -0.98       0.58
      8.96      -1.03       0.71
      9.17      -1.12       0.05
      9.07      -0.89      -0.45
      8.78      -0.82      -0.44
      8.62      -0.87      -0.27
      8.72      -0.56      -0.18
      9.17       0.01      -0.04
      9.43       0.18      -0.04
      9.02       0.03       0.03
      9.00      -0.03       0.04
      9.30      -0.20      -0.15
      9.41      -0.17      -0.25
      9.19      -0.32      -0.31
      9.36      -0.55      -0.28
      9.72      -0.48      -0.27
      9.81      -0.66      -0.27
      9.80      -0.99      -0.29
      9.80      -0.90      -0.07
      9.92      -0.80      -0.23
      9.92      -0.71      -0.67
     10.03      -0.68      -0.20
     10.03      -0.81       0.29
      9.16      -0.32       0.83
      9.04      -0.40       0.88
      9.03      -0.20       0.41
      8.93      -0.02       0.33
      9.23      -0.41       0.40
      9.07      -0.65       0.24
      8.66      -0.48       0.33
      8.97      -0.46       0.63
      9.25      -0.35       0.75
      9.18      -0.80       0.46
      9.17      -0.58       0.21
      9.36      -0.34      -0.07
      9.16      -0.79       0.27
      8.72      -0.90       0.85
      8.72      -0.29       0.73
      9.11      -0.01       0.36
      9.30      -0.18      -0.03
      9.36      -0.36      -0.02
      9.30      -0.52       0.21
      9.46      -0.45       0.14
      9.45      -0.76       0.05
      9.07      -0.96       0.30
      9.08      -0.99       0.32
      9.36      -1.08       0.21
      9.67      -1.27       0.47
     10.60      -1.28       0.33
     10.78      -1.30       0.08
      9.87      -0.91      -0.16
      9.50      -1.13      -0.15
      9.26      -0.87      -0.09
      9.07      -0.43      -0.08
      8.84      -0.21      -0.28
      8.96      -0.08      -0.02
      9.25       0.03       0.15
      9.32       0.05       0.16
      9.31      -0.05       0.27
      9.56      -0.40       0.13
      9.94      -0.48      -0.24
     10.05      -0.22      -0.40
      9.98      -0.31      -0.23
     10.04      -0.61      -0.12
     10.00      -0.82      -0.16
      9.96      -0.90      -0.27
     10.20      -0.73      -0.18
     10.20      -0.38      -0.15
     10.22      -0.41      -0.44
     10.51      -0.74      -0.18
      9.32      -0.16       0.32
      9.37      -0.45       0.38
      9.76      -0.24       0.39
      9.42      -0.26       0.25
      9.00      -0.57       0.33
      9.16      -0.77       0.50
      9.37      -0.66       0.44
      9.18      -0.83       0.35
      9.09      -1.26       0.48
      9.50      -0.81       0.75
      9.84      -0.02       0.60
      9.12      -0.24       0.18
      8.67      -0.67       0.50
      8.87      -0.60       0.86
      9.43      -0.47       0.56
      9.74      -0.26       0.19
     10.07      -0.29       0.20
      9.98      -0.61       0.05
     10.02      -0.49       0.05
     10.00      -0.62       0.32
      9.42      -0.72       0.25
      9.28      -0.91       0.34
      9.57      -1.16       0.17
      9.50      -1.02       0.04
      9.91      -0.98       0.11
      9.98      -1.21       0.10
      9.67      -1.15       0.30
      9.71      -0.93       0.42
      9.85      -0.82       0.10
      9.98      -0.86      -0.05
      9.99      -0.92       0.01
      9.35      -1.01      -0.57
      9.09      -0.94      -0.21
      9.02      -0.59       0.12
      9.02      -0.30       0.14
      9.15      -0.20       0.08
      9.51      -0.36      -0.09
     10.03      -0.45      -0.41
     10.53      -0.62      -0.29
     10.25      -0.61      -0.06
      9.91      -0.37       0.11
      9.97      -0.30       0.08
     10.19      -0.41      -0.11
     10.17      -0.63      -0.07
     10.30      -0.74      -0.10
     10.51      -0.65      -0.07
     10.32      -0.51      -0.11
      9.62       0.03      -0.05
      9.63      -0.37       0.20
      9.39      -0.49       0.26
      9.20      -0.46       0.38
      9.29      -0.38       0.55
      9.35      -0.19       0.71
      9.39      -0.11       0.58
      9.31      -0.06       0.36
      9.29      -0.00       0.47
      9.19       0.10       0.67
      8.99       0.14       0.61
      9.04       0.04       0.33
      9.18      -0.03       0.25
      9.25       0.11       0.21
      9.58       0.26       0.14
      9.69       0.54       0.16
      9.94       0.40       0.32
     10.06       0.27      -0.01
      9.97      -0.03      -0.17
      9.95      -0.43       0.14
      9.94      -0.58       0.41
      9.86      -0.45       0.36
      9.80      -0.69       0.17
      9.66      -0.81       0.31
      9.56      -0.78       0.31
      9.64      -0.90       0.04
      9.75      -1.08       0.06
      9.86      -1.28       0.02
      9.87      -1.46      -0.29
      9.92      -1.30      -0.27
      9.94      -1.02      -0.05
      9.82      -0.89       0.03
      9.75      -0.77      -0.05
      9.68      -0.74      -0.00
      9.63      -0.77       0.14
      9.69      -0.76       0.16
      9.94      -0.80       0.02
      9.99      -0.85      -0.22
      9.92      -0.64      -0.20
     10.11      -0.52      -0.26
     10.31      -0.52      -0.33
     10.33      -0.54      -0.17
     10.44      -0.75      -0.16
     10.14      -0.95      -0.27
      9.91      -0.92      -0.25
     10.04      -0.64      -0.14
     10.05      -0.83       0.11
