# vtk DataFile Version 3.0
Low resolution, disturbed wind of XZ Slice at time = 48 seconds.
ASCII
DATASET STRUCTURED_POINTS
DIMENSIONS    47     1    12
ORIGIN     635.00    1000.00      15.00
SPACING      30.00      30.00      30.00
POINT_DATA             564
VECTORS DisXZ float
      4.61       0.50       0.63
      4.91       0.10      -0.40
      5.97       0.92      -0.45
      5.65       0.18      -0.49
      4.49       0.72       0.32
      4.99      -0.77       0.08
      5.90      -0.31       0.09
      4.51      -0.47      -0.31
      4.29       0.31      -0.17
      4.39       0.05      -0.09
      5.29       0.24       0.33
      5.03      -0.62       0.09
      3.77      -0.02       0.29
      3.57       0.94       0.30
      3.62      -0.08       0.25
      3.80       0.39       0.54
      4.78       0.69       0.60
      5.65       0.58       0.01
      5.79       0.72       0.21
      5.60      -0.32       0.12
      5.69      -0.09       0.13
      4.40       0.78       0.39
      3.25       0.10       0.20
      4.39       1.28      -0.01
      5.55      -0.42      -0.23
      4.68      -0.90      -0.03
      4.79      -0.72      -0.34
      5.00      -0.70       0.97
      5.39       0.17      -0.81
      5.27       0.58      -0.28
      4.54       0.88      -0.33
      4.56       1.31       0.32
      5.10      -0.47       0.46
      4.25       0.58       0.07
      4.80       0.62      -0.27
      4.38      -0.07      -0.25
      4.48      -0.17      -0.27
      4.47       0.78      -0.07
      4.59       0.55      -0.06
      4.49       0.40       0.36
      5.58      -0.27      -0.27
      5.01       0.41      -0.35
      5.87       0.43       0.05
      5.85       0.36      -0.41
      4.94       0.46      -0.06
      4.94       0.62       0.32
      5.29       0.15      -0.08
      5.64      -0.48       0.12
      5.48      -0.83       0.11
      4.63      -1.00       0.40
      5.00       0.03      -0.03
      4.93       0.08       0.74
      6.06      -0.69       0.13
      6.01      -0.11       0.15
      6.14      -0.20      -0.39
      5.88       0.61      -0.04
      5.90       0.40       0.52
      5.75      -0.20       0.36
      6.57       1.00       0.09
      2.23       0.36       0.53
      2.34       0.88      -0.15
      2.19      -0.05       0.80
      1.98      -0.13       0.26
      3.02       0.05       0.25
      3.44       0.17       0.20
      3.88      -0.19      -0.12
      3.95       0.72       0.43
      4.23      -0.12       0.00
      4.15      -0.37       0.90
      4.10       0.44       0.61
      2.80      -0.44       0.46
      5.86      -0.06       0.24
      6.28       0.82       0.85
      6.74      -0.82       0.12
      6.97      -0.47       0.16
      6.25      -0.67       0.74
      6.32       0.23       0.06
      7.63       0.63      -0.38
      7.05       0.91      -0.35
      6.87       0.76      -0.00
      7.16       0.53      -0.46
      5.99      -0.10      -0.04
      6.54       0.76       0.27
      6.53       0.22      -0.31
      6.59       0.56       0.19
      6.14       0.62       0.05
      6.00       0.42       0.26
      6.57       0.29      -0.66
      6.72       0.33       0.33
      7.09       0.38       0.26
      7.26      -0.07      -0.54
      7.06       0.76      -0.38
      7.29       0.53       0.19
      6.17       0.50       0.44
      6.77      -0.30      -0.14
      6.82      -0.48      -0.00
      6.32      -0.10       0.20
      6.31      -0.84       0.52
      6.97       0.21       0.50
      7.28       0.46       0.06
      6.87      -0.59       0.28
      6.66       0.31       0.09
      6.64       0.25       0.18
      6.59      -0.01       0.16
      6.44       0.21       0.26
      6.35       0.06       0.03
      3.10       0.05       0.36
      3.52       0.05       0.95
      3.62       0.06       0.58
      3.29      -0.14       0.40
      3.34      -0.29      -0.13
      3.76      -0.30       0.44
      3.90      -0.52       0.52
      3.36       0.05       0.94
      3.99      -0.02       0.46
      3.73       0.13       0.17
      4.27      -0.11       0.34
      4.22      -0.33       0.48
      7.51      -0.15       0.58
      7.46      -0.21       0.36
      7.11      -0.06       0.19
      7.03      -0.41       0.42
      7.30      -0.62       0.35
      8.08      -0.15       0.46
      7.11       0.14      -0.09
      6.43       0.22      -0.28
      6.45       0.34       0.15
      6.94      -0.05       0.28
      7.01      -0.60       0.40
      6.90      -0.26       0.06
      7.12       0.18       0.56
      7.32       0.30      -0.20
      7.44       0.64       0.00
      6.77       0.35       0.44
      6.94       0.48       0.46
      6.36      -0.81      -0.27
      6.65      -1.73      -0.16
      7.76      -0.93      -1.03
      6.88       0.41      -0.22
      6.28       0.43       0.46
      7.21       0.50      -0.07
      7.30      -0.54      -0.11
      7.91      -0.14       0.52
      7.36      -0.30       0.52
      7.06      -0.75       0.08
      7.37      -1.39       0.14
      7.33      -0.39       0.56
      7.13      -0.23       0.73
      7.52      -0.43       0.61
      7.49       0.31      -0.13
      7.49       0.23       0.40
      6.55       0.17       0.17
      7.23       0.15       0.45
      6.90       0.03       0.77
      3.68      -0.33       0.88
      3.96      -1.06       0.88
      4.39      -0.78       0.54
      5.00      -1.04      -0.37
      4.69      -0.35       0.60
      4.23      -0.22       0.90
      4.28       0.13       0.69
      4.52       0.14       0.53
      4.48       0.06       1.16
      4.28       0.54       0.02
      4.78       0.97       0.41
      7.82       1.35       0.30
      7.90       0.53       0.53
      8.05       0.40       0.70
      8.22      -0.36       0.44
      8.10       0.47       0.12
      8.36      -0.08       0.16
      8.54       0.04       0.09
      8.37       0.20      -0.26
      7.35      -0.04       0.49
      7.31       0.67       0.08
      7.46       0.42       0.32
      7.85      -0.27       0.11
      8.26      -0.07      -0.18
      8.10      -0.23      -0.06
      7.85       0.23       0.27
      7.39       0.01       0.16
      7.15       0.38       0.23
      7.66      -0.83      -0.43
      7.62      -0.36       0.13
      7.61      -0.33      -0.22
      8.14      -0.16      -0.13
      7.80       0.23       0.12
      7.59      -0.85      -0.09
      8.70      -0.46       0.28
      8.93      -0.43       0.27
      9.20      -0.80       0.03
      8.50      -0.65      -0.07
      7.65      -1.09       0.18
      7.36      -1.39       0.60
      7.18      -1.51       0.63
      7.17      -0.39       0.38
      7.28       0.33       0.59
      6.15      -0.24       0.86
      6.34      -0.17       0.42
      6.69      -0.13       0.21
      7.56       0.22      -0.46
      3.06      -0.12       0.33
      3.20      -0.11       0.61
      3.49      -0.27       0.44
      3.33      -0.92       0.63
      3.80      -1.26       0.66
      3.82      -0.70       0.80
      4.28      -0.46       0.74
      3.86      -0.35       0.77
      4.42       0.03       0.70
      4.73      -0.19       0.47
      4.86      -0.20       0.28
      7.88       0.24      -0.10
      8.07       0.79       0.19
      8.13       0.82       0.35
      8.10       0.61       0.38
      8.46       0.21       0.49
      8.66       0.04       0.41
      8.53      -0.07      -0.23
      8.29       0.05       0.08
      8.34       0.10       0.48
      8.36       0.30       0.20
      8.50      -0.10       0.25
      8.43      -0.15      -0.08
      8.46       0.01      -0.53
      8.34      -0.33       0.21
      8.04      -0.15      -0.18
      7.91       0.40       0.19
      7.92      -0.46       0.81
      8.02      -0.77      -0.15
      8.38      -0.89       0.05
      8.09      -0.96       0.30
      8.91      -0.28       0.20
      8.79      -0.37      -0.03
      9.13      -0.83       0.13
      9.35      -0.35       0.22
      9.49      -0.39       0.03
      8.65       0.01       0.15
      8.53      -0.08       0.04
      8.90      -0.45       0.23
      7.99      -1.34       0.50
      7.40      -1.12       0.79
      7.28      -0.88       0.98
      7.48      -0.28       0.79
      7.31      -0.00       0.67
      7.62       0.71      -0.03
      7.53       0.41      -0.55
      7.99       0.35      -0.81
      6.16       0.63      -0.42
      5.85       0.15      -0.18
      6.15      -0.04      -0.01
      5.65      -0.20       0.08
      5.74      -0.36       0.65
      5.91      -0.30       0.51
      6.37      -0.18       0.69
      6.33       0.19       0.83
      6.61       0.28       0.23
      6.44       0.14       0.26
      6.70      -0.54      -0.04
      8.53      -0.80       0.21
      8.38      -0.02       0.33
      8.77       0.45       0.48
      8.15       0.79       0.47
      8.27       0.38       0.58
      8.56       0.03       0.14
      8.60      -0.23       0.08
      8.33      -0.51      -0.16
      8.92      -0.07       0.01
      9.23       0.16       0.36
      8.92       0.45      -0.11
      8.80       0.42      -0.28
      8.80      -0.01       0.00
      7.99      -0.14       0.33
      8.08      -0.05       0.32
      8.26       0.36       0.40
      8.10       0.37       0.35
      7.71       0.09       0.31
      8.00      -0.46      -0.12
      8.30      -0.68      -0.24
      8.58      -0.45       0.31
      8.44      -0.34       0.07
      8.53      -0.47      -0.10
      9.12      -0.38       0.13
      8.92      -0.37       0.32
      9.11      -0.06       0.40
      9.61       0.37      -0.40
      8.24      -0.23      -0.35
      8.18      -0.83       0.83
      7.74      -1.37       0.76
      7.93      -0.53       0.97
      7.40      -0.31       1.34
      8.53       0.63       0.80
      8.56       0.36      -0.19
      8.43      -0.68      -0.78
      8.51      -0.39      -0.61
      8.34      -0.12      -0.67
      8.15       0.09       0.06
      7.92      -0.24       0.27
      8.13       0.17       0.71
      8.14      -0.31       0.15
      8.28      -0.25       0.11
      8.64      -0.64       0.18
      8.59      -0.87       0.02
      8.82      -0.80       0.38
      8.53       0.11       0.54
      8.19       0.28       0.33
      8.68       0.12       0.31
      8.85      -0.01       0.41
      8.78       0.05       0.84
      9.24       0.49       0.23
      8.63       0.65       0.51
      8.96       0.61       0.71
      9.12      -0.35       0.04
      9.14      -0.23       0.12
      9.09      -0.37       0.14
      8.96      -0.25       0.21
      8.83      -0.42       0.01
      8.97      -0.39      -0.19
      8.95       0.12       0.08
      8.72      -0.03       0.48
      8.27      -0.20       0.47
      8.58      -0.01       0.24
      9.14       0.62       0.41
      8.48       0.46       0.58
      8.31       0.00      -0.04
      8.66      -0.47      -0.48
      8.90      -0.58       0.05
      9.06      -0.80       0.11
      9.26      -0.58      -0.02
      9.11      -0.48       0.49
      8.89      -0.33       0.42
      9.24       0.04      -0.05
      9.23      -0.02      -0.00
      8.90      -0.45      -0.00
      8.54      -0.58       0.65
      8.17      -1.18       0.84
      7.99      -0.81       1.36
      8.45      -1.01       1.47
      9.65      -1.05       1.33
      9.03      -1.66       0.66
      9.22      -1.16      -0.87
      8.58       0.16      -0.35
      8.58      -0.02       0.08
      9.06      -1.06      -0.07
      8.33      -0.65       0.22
      8.42      -0.59       0.25
      8.25      -0.74       0.53
      8.44      -1.17       0.56
      8.99      -1.45       0.33
      9.18      -1.13       0.26
      8.44      -1.22       0.26
      8.26      -0.91       0.34
      8.62      -0.94       0.36
      8.60      -0.91       0.54
      8.64      -1.15       0.65
      8.91      -1.43       0.43
      8.94      -0.30       0.47
      9.13       0.31       0.75
      9.55      -0.19       0.53
      9.19      -0.32       0.49
      8.97      -0.55       0.23
      8.85      -0.85       0.45
      8.80      -0.76       0.14
      8.65      -0.74      -0.31
      8.80      -0.71      -0.41
      8.71      -0.02       0.04
      9.03      -0.05       0.34
      9.47      -0.22      -0.00
      9.85      -0.04      -0.30
      9.42      -0.04      -0.02
      9.04       0.28       0.54
      9.17       0.42       0.05
      9.37       0.01      -0.45
      9.04      -0.13      -0.17
      9.15      -0.28      -0.01
      9.32      -0.33       0.12
      8.76      -0.48       0.75
      8.93      -0.29       0.67
      8.92      -0.26       0.17
      8.89       0.30       0.17
      8.89      -0.13      -0.04
      8.44      -0.22       0.31
      8.41      -0.09       0.79
      8.72      -0.36       0.75
      8.98      -0.59       0.94
      9.05      -1.42       1.04
      9.46      -1.83       0.36
      9.64      -0.69       0.18
      9.12      -0.33       0.16
      8.74      -0.28      -0.06
      8.81      -0.30       0.22
      8.92      -0.48       0.54
      8.82      -0.58       0.12
      9.12      -0.70       0.18
      9.81      -0.88      -0.18
      9.50      -1.05      -0.07
      8.93      -0.99       0.68
      9.01      -0.55       0.45
      8.73      -0.63       0.36
      8.56      -1.08       0.49
      8.94      -1.08       0.41
      9.03      -1.18       0.40
      8.54      -0.91       0.49
      8.46      -0.70       0.59
      8.62      -0.74       0.58
      8.90      -1.00       0.36
      9.31      -0.97       0.27
      9.33      -0.83       0.44
      8.88      -1.05       0.69
      8.71      -1.43       0.47
      9.11      -1.00      -0.33
      9.10      -0.86      -0.50
      8.91      -0.91      -0.22
      8.81      -0.67      -0.17
      9.13      -0.02      -0.03
      9.28       0.11      -0.08
      8.97       0.07       0.00
      8.90       0.00       0.03
      9.28      -0.17      -0.13
      9.50      -0.17      -0.37
      9.53      -0.10      -0.47
      9.72      -0.29      -0.49
      9.92      -0.38      -0.53
      8.43      -0.61       0.89
      8.87      -0.70       0.50
      9.19      -0.77       0.01
      9.22      -0.27       0.07
      9.23       0.25       0.14
      9.39      -0.07      -0.01
      9.74      -0.11       0.35
      9.50      -0.27       0.58
      9.18      -0.56       0.54
      8.76      -0.23       0.46
      8.99      -0.13       0.54
      9.18      -0.26       0.38
      8.83      -0.28       0.37
      8.91      -0.45       0.50
      9.08      -0.90       0.82
      9.12      -0.73       0.83
      9.16      -0.76       0.50
      9.15      -0.86       0.25
      9.50      -0.33      -0.16
      9.72      -0.79       0.42
      9.39      -1.20       0.56
      9.16      -0.63       0.70
      9.15      -0.26       0.32
      9.39      -0.30      -0.05
      9.28      -0.40       0.04
      9.00      -0.52       0.24
      9.18      -0.69       0.23
      9.36      -0.58       0.10
      9.59      -0.88       0.22
      9.71      -1.23      -0.11
      9.41      -1.04      -0.33
      9.48      -0.74       0.42
      9.95      -1.02       0.29
     10.03      -1.30      -0.03
      9.80      -0.66      -0.36
      9.56      -0.78      -0.05
      9.39      -0.90       0.18
      9.38      -0.57       0.17
      9.08      -0.28      -0.11
      8.94      -0.07      -0.02
      9.11      -0.00       0.12
      9.25       0.11       0.13
      9.24       0.10       0.20
      9.51      -0.32       0.12
      9.97      -0.64      -0.10
     10.33      -0.66      -0.24
     10.15      -0.39      -0.35
      9.24      -0.41       0.56
      9.44      -0.60       0.28
      9.49      -0.34       0.05
      9.70      -0.28       0.04
      9.76      -0.39       0.09
      9.89      -0.03       0.08
      9.84      -0.03       0.14
      9.30      -0.04       0.45
      9.25      -0.24       0.55
      9.50      -0.10       0.49
      9.36      -0.07       0.17
      9.04      -0.64       0.17
      9.06      -1.25       0.46
      9.39      -0.90       0.43
      9.36      -0.51       0.55
      9.38      -1.12       0.80
      9.55      -1.49       1.04
      9.51      -0.57       0.56
      9.10      -0.25      -0.03
      8.73      -0.42       0.55
      8.71      -0.45       0.93
      8.88      -0.30       0.79
      9.37      -0.16       0.48
      9.97      -0.26       0.40
      9.87      -0.43       0.06
     10.08      -0.51       0.07
     10.06      -0.57       0.07
      9.67      -0.57       0.31
      9.60      -0.67       0.39
      9.37      -0.82       0.16
      9.41      -1.22       0.05
      9.56      -1.25      -0.15
      9.70      -1.06      -0.01
      9.82      -1.19       0.12
      9.79      -1.01       0.18
      9.49      -0.79       0.19
      9.10      -1.07       0.08
      9.13      -1.06       0.05
      9.42      -0.85      -0.24
      9.16      -0.87      -0.22
      8.97      -0.68      -0.06
      8.95      -0.32      -0.04
      9.06      -0.21      -0.01
      9.43      -0.54      -0.07
      9.90      -0.68      -0.25
     10.31      -0.72      -0.27
     10.30      -0.62      -0.28
      9.72       0.09       0.37
      9.59      -0.34       0.08
      9.66      -0.61      -0.11
      9.80      -0.36      -0.03
      9.74      -0.10       0.00
      9.65      -0.37       0.41
      9.47      -0.21       0.21
      9.64       0.04      -0.01
      9.59      -0.18       0.15
      9.31      -0.30       0.18
      9.05      -0.34       0.31
      9.06      -0.37       0.50
      9.24      -0.21       0.59
      9.18      -0.09       0.46
      8.99      -0.04       0.46
      9.20      -0.14       0.56
      9.25      -0.00       0.56
      9.08       0.07       0.61
      8.96      -0.06       0.37
      8.82      -0.27       0.35
      9.16      -0.48       0.49
      9.53      -0.10       0.35
      9.70       0.34       0.12
      9.86       0.40       0.35
      9.99       0.31       0.28
      9.96       0.26      -0.16
     10.02      -0.21      -0.13
      9.94      -0.34       0.31
      9.87      -0.45       0.30
      9.91      -0.61       0.21
      9.86      -0.66       0.18
      9.86      -0.77       0.01
      9.91      -0.82      -0.26
      9.81      -0.83      -0.21
      9.67      -0.90       0.22
      9.75      -1.06       0.22
      9.97      -1.08      -0.09
      9.88      -0.89      -0.20
      9.71      -0.97      -0.10
      9.81      -1.07      -0.11
      9.85      -0.82       0.01
      9.71      -0.61       0.20
      9.68      -0.62       0.27
      9.79      -0.75       0.24
      9.69      -0.92       0.10
      9.71      -0.92      -0.00
     10.03      -0.79      -0.10
