# vtk DataFile Version 3.0
Low resolution, disturbed wind of YZ Slice at time = 6 seconds.
ASCII
DATASET STRUCTURED_POINTS
DIMENSIONS     1    26    12
ORIGIN    1630.00     635.00      15.00
SPACING      30.00      30.00      30.00
POINT_DATA             312
VECTORS DisYZ float
      6.49      -0.26       0.08
      3.57      -0.19       0.87
      6.87      -0.16       0.08
      6.90       1.16      -0.56
      5.83       0.74       0.09
      5.05       0.24       0.05
      6.16       0.83      -0.17
      5.12       0.34       0.16
      5.90       0.22      -0.17
      4.20      -0.01       0.36
      4.45       0.12       0.57
      5.13       0.63      -0.48
      6.08       1.09      -0.20
      6.06       1.17       0.02
      3.75       0.25      -0.03
      4.32      -0.69       0.01
      3.81       0.29       0.94
      5.86      -0.17      -0.53
      5.65       0.74       0.14
      6.38       0.44      -0.25
      8.49      -0.35      -0.58
      6.36       0.61       0.02
      5.97       0.48       0.32
      5.88       1.21      -0.61
      5.51       1.03       0.04
      7.26       0.51       0.19
      6.12       0.56      -0.05
      7.17      -0.10       0.39
      6.12       0.04       0.69
      7.37      -0.86      -0.47
      6.54      -0.02      -0.44
      6.54       0.63      -0.04
      6.45      -0.11      -0.02
      6.82      -0.36      -0.63
      6.57      -0.09       0.07
      6.21       0.22      -0.53
      6.76       0.51      -0.33
      6.41       1.25      -0.26
      7.25      -0.29      -0.59
      6.33       0.21       0.51
      6.30      -0.32       0.09
      7.89       0.84      -0.44
      6.85       0.73       0.23
      6.39       0.42      -0.11
      6.85      -0.25       0.20
      6.59       0.17       0.21
      7.77       0.57      -0.58
      8.39       0.97      -0.06
      6.38       0.35       0.44
      7.63       0.38      -0.03
      7.53       0.12       0.30
      7.80      -0.19      -0.05
      6.57      -0.44       0.39
      6.78      -0.71       0.63
      6.71      -0.55       0.23
      7.44       0.15       0.08
      8.34       0.03      -0.24
      6.80       0.27      -0.08
      6.81       0.56      -0.12
      7.88       0.02      -0.01
      8.23       0.41      -0.20
      7.96       0.49      -0.18
      7.14       0.20      -0.52
      6.68      -0.51       0.10
      7.61      -0.50      -0.68
      6.87      -0.10       0.09
      5.82       0.44      -0.05
      7.72       0.75       0.05
      7.03      -0.34       0.16
      6.93      -0.24       0.52
      7.14      -0.27       0.17
      7.59       0.03       0.32
      8.22       0.42      -0.28
      8.19       0.52      -0.31
      7.55       0.21       0.57
      7.87       0.12      -0.28
      8.58      -0.08      -0.02
      8.48      -0.75       0.18
      6.54       0.12       1.10
      7.64      -0.03      -0.28
      7.31      -0.53       0.27
      7.79      -0.37       0.09
      8.07      -0.24      -0.06
      7.65      -0.14       0.22
      7.79      -0.34       0.16
      8.56      -0.18      -0.37
      7.32      -0.29      -0.07
      7.55      -0.28       0.19
      7.99       0.45      -0.10
      6.86      -0.60      -0.31
      7.36      -0.07      -0.38
      7.99      -0.66       0.28
      7.74      -0.27      -0.07
      7.80       0.47       0.36
      8.51       0.97      -0.28
      8.08      -0.10       0.48
      7.35      -0.20       0.00
      8.16       0.05       0.01
      8.20       0.42      -0.21
      8.01       0.05       0.17
      8.07      -0.06       0.27
      8.75      -0.40       0.75
      9.01      -0.73      -0.34
      9.13      -0.56       0.26
      7.45       0.27       0.68
      8.32       0.25       0.23
      7.94       0.15       0.16
      8.12       0.12      -0.17
      8.46      -0.27       0.21
      7.82      -0.03       0.31
      7.86       0.11       0.57
      8.40      -0.64       0.03
      8.69      -0.68       0.05
      8.98      -0.59      -0.32
      8.37      -0.51      -0.19
      8.11      -0.17       0.01
      8.09      -0.35       0.22
      8.70      -0.34       0.42
      9.53      -0.74      -0.64
      9.26      -0.54      -0.68
      8.24      -0.58       0.02
      8.13      -1.47       0.74
      8.71      -0.26      -0.31
      8.67      -0.23      -0.02
      8.28       0.21       0.09
      8.63      -0.25      -0.09
      8.32       0.04       0.32
      8.68      -0.04       0.69
      8.86       0.32       0.23
      9.20      -0.21       0.07
      8.67       0.17       0.31
      8.27       0.48       0.25
      8.08       0.20       0.43
      8.12       0.42       0.17
      8.13       0.29       0.43
      8.55       0.34       0.33
      8.32       0.05       0.77
      9.08      -0.21       0.52
      8.43      -0.12       0.18
      9.06      -0.62      -0.35
      8.93      -0.76      -0.40
      8.70      -0.70      -0.28
      7.76      -0.62       0.25
      8.50      -0.30       0.31
      9.30      -0.21      -0.28
      9.38      -1.21      -0.41
      8.94      -0.85      -0.12
      8.81      -0.39      -0.21
      9.24      -0.48       0.12
      9.12      -0.88      -0.08
      8.98      -0.50      -0.05
      9.24      -0.37       0.23
      8.92      -0.19      -0.17
      9.11       0.13       0.21
      9.08       0.04       0.19
      9.24      -0.28       0.59
      9.10      -0.36       0.55
      8.28       0.26       0.60
      8.76       0.46       0.01
      8.64       0.23       0.08
      8.33       0.66       0.43
      8.81       0.74       0.56
      8.26       0.30       1.02
      8.67       0.25       0.69
      8.65       0.27       0.42
      9.50      -0.35       0.25
      9.23      -0.10      -0.80
      8.82      -0.52      -0.27
      9.01      -0.41       0.01
      9.00      -0.73       0.30
      9.76      -0.78      -0.32
      9.24      -0.50      -0.42
      9.47      -0.62      -0.75
      9.08      -0.69      -0.28
      9.37      -0.55       0.13
      9.57      -0.57       0.07
      9.37      -0.47       0.10
      9.46      -0.70      -0.03
      9.11      -0.98      -0.07
      9.09      -0.44      -0.12
      9.31      -0.25       0.63
      9.19      -0.59       0.75
      8.14      -0.11       0.48
      8.92       0.10       0.29
      8.72      -0.12       0.56
      8.74       0.18       0.12
      8.42       0.56       0.50
      8.34       0.31       0.77
      8.35       0.26       1.15
      8.15       0.04       0.74
      8.67       0.36       0.88
      9.42       0.17       0.35
      9.15      -0.97      -0.19
      8.85      -0.87      -0.31
      8.94      -0.39       0.15
      9.16      -0.64       0.09
      9.80      -0.18      -0.63
     10.44      -0.39      -0.61
      9.94      -0.42      -0.34
      9.76      -0.97      -0.17
      9.14      -0.89       0.12
      9.22      -0.63       0.36
      9.25      -0.55       0.23
      9.29      -0.49       0.31
      9.04      -0.33      -0.07
      9.42      -0.89      -0.18
      9.74      -0.61       0.11
      9.53      -0.69       0.21
      8.76      -0.19       0.22
      8.43      -0.29       0.56
      8.74      -0.12       0.27
      9.09       0.11       0.49
      8.97       0.19       0.52
      8.09       0.22       0.89
      8.56       0.43       1.09
      8.64       0.50       0.82
      8.96       0.30       0.36
      9.15       0.36       0.19
      9.33      -0.68      -0.05
      9.23      -0.63      -0.31
      9.10      -0.64      -0.13
     10.09      -0.38      -0.58
      9.80      -0.65      -0.42
      9.83      -0.56      -0.16
     10.00      -0.56      -0.32
      9.71      -0.86      -0.08
      9.33      -0.77       0.23
      8.97      -0.73       0.66
      9.31      -0.47       0.18
      9.36      -0.51       0.15
      9.51      -0.68       0.16
      9.50      -0.86      -0.12
      9.36      -1.22      -0.10
      9.95      -0.79      -0.46
      8.86      -0.74       0.28
      9.09      -0.92       0.72
      8.96      -0.64       0.46
      9.43      -0.55       0.55
      9.56      -0.35      -0.09
      8.76      -0.36       0.74
      9.59      -0.10       0.14
      9.67       0.19       0.33
      9.13       0.04       0.47
      9.43      -0.64       0.34
      9.49      -0.60       0.27
      9.64      -0.74       0.03
      9.84      -0.40      -0.15
      9.90      -0.45      -0.33
     10.07      -0.38      -0.27
      9.98      -0.40      -0.12
      9.18      -0.78      -0.15
      9.55      -0.68      -0.07
      9.10      -0.87       0.43
      9.51      -0.91       0.34
      9.27      -1.04      -0.15
      9.49      -1.05       0.41
      9.49      -0.99       0.32
     10.15      -0.93       0.04
      9.29      -1.11      -0.23
      9.88      -0.47      -0.62
      9.06      -1.20       0.55
      8.97      -0.86       0.61
      9.05      -0.86      -0.11
     10.04      -0.46       0.29
      9.22      -0.50       0.13
      9.70      -0.59       0.18
      9.28      -0.18       0.30
      8.89      -0.23       0.62
      9.34      -0.73       0.89
      9.53      -0.56       0.16
      9.55      -0.72       0.46
      9.95      -0.53       0.14
     10.33      -0.72       0.01
      9.90      -0.34      -0.05
     10.14      -0.62       0.03
      9.34      -1.01      -0.09
      9.57      -0.98       0.26
      9.47      -0.67       0.39
      9.86      -0.42       0.39
      9.51      -0.34       0.27
      9.68      -0.50       0.40
      9.77      -0.69       0.13
      9.93      -0.50       0.37
      9.89      -0.25       0.17
     10.15      -0.42      -0.34
     10.59      -0.69      -0.35
      9.41      -0.57       0.43
      9.12      -0.50       0.58
      9.68      -0.49      -0.04
      9.74      -0.82       0.29
      9.85      -0.58       0.24
      9.52      -0.28       0.08
      9.40      -0.73       0.12
      9.91      -0.44       0.78
      9.39      -0.39       1.16
      9.00      -0.69       0.18
      9.65      -0.53       0.30
     10.09      -0.57       0.09
     10.34      -0.51      -0.18
     10.41      -0.56      -0.16
      9.76      -0.94       0.05
      9.68      -1.23       0.09
      9.62      -0.86       0.01
      9.74      -0.72       0.61
      9.72      -0.63       0.34
     10.01      -0.66       0.43
     10.36      -0.82      -0.13
     10.10      -0.37       0.33
      9.64      -0.39       0.34
     10.46      -0.61       0.04
     10.67      -0.61       0.02
     10.89      -0.81      -0.31
