# vtk DataFile Version 3.0
Low resolution, disturbed wind of YZ Slice at time = 51 seconds.
ASCII
DATASET STRUCTURED_POINTS
DIMENSIONS     1    26    12
ORIGIN     748.00     635.00      15.00
SPACING      30.00      30.00      30.00
POINT_DATA             312
VECTORS DisYZ float
      5.48      -0.01       0.55
      7.51       1.00      -0.74
      5.07       0.64       0.65
      4.80       0.51      -0.16
      4.22       0.15       0.21
      5.98      -0.08      -0.62
      5.56       0.56      -0.62
      6.74      -0.95      -0.58
      6.39       0.39       0.14
      5.58      -0.31       0.84
      5.21       0.75       0.76
      4.68       0.33      -0.05
      5.43      -0.15      -0.05
      4.74       0.68       0.01
      4.79      -0.51      -0.33
      5.19      -0.63       0.13
      5.21      -1.15      -0.30
      5.80       0.26       0.04
      5.69       0.59      -0.04
      4.01       0.37      -0.23
      5.71      -1.21       0.17
      6.39      -0.11      -0.02
      6.00      -0.37      -0.39
      4.81       0.00       0.00
      6.02      -0.45      -0.25
      5.56       1.05      -0.31
      7.22       0.22       0.74
      7.36      -0.08      -0.22
      7.40       0.41       0.13
      5.73      -0.33      -0.13
      6.09      -0.25       0.38
      6.58       0.12       0.22
      6.42      -0.27       0.52
      6.89      -0.26       0.13
      7.50      -0.23      -0.06
      7.48       0.46       0.58
      6.55      -0.08      -0.90
      7.32       0.19       0.91
      4.86      -0.17       0.33
      5.29       1.02       0.39
      5.87      -0.34       0.01
      5.72      -1.04       0.20
      5.79      -1.10       0.91
      6.90       0.22      -0.45
      5.20       0.41       0.99
      6.32       0.86      -0.24
      6.83       1.26      -0.70
      7.04       0.66      -0.57
      7.44       0.39       0.04
      7.65      -0.15       0.40
      8.16       0.09      -0.13
      8.09      -0.14      -0.36
      8.55       0.18       0.73
      7.55      -0.78       0.08
      7.79      -0.97      -0.37
      6.67      -0.25       0.14
      7.30      -0.37       0.93
      6.92      -0.58       0.65
      7.20      -0.78       0.04
      7.89      -0.24       0.24
      8.24      -0.40       0.42
      8.05      -0.41      -1.46
      6.81      -0.36       0.81
      6.81      -0.04       0.13
      6.71      -0.61       0.67
      6.47      -0.60       0.21
      5.92      -0.54       0.63
      6.81      -0.15      -0.69
      7.23       0.26      -0.72
      7.32      -0.39      -0.24
      7.52      -0.33      -0.41
      8.09      -0.08      -0.85
      8.66       0.07      -0.52
      8.01      -0.98       0.01
      9.17      -0.78      -0.05
      8.80      -0.53      -0.44
      8.36       0.44      -0.22
      8.69       0.42      -0.79
      8.92       0.16       0.43
      7.59      -0.24       0.19
      8.12      -0.72      -0.31
      8.14      -0.88      -0.01
      7.99      -1.14       0.38
      7.03      -1.02       0.72
      7.03      -0.35       0.57
      8.59      -0.70       0.02
      8.58       0.14       0.17
      8.14      -0.59      -0.53
      7.58      -1.50      -0.15
      7.63      -1.30      -0.05
      6.91      -0.88       0.45
      7.75      -0.59      -0.38
      7.61      -0.52       0.21
      7.16      -0.03      -0.31
      8.35       0.01      -0.61
      8.43      -0.42      -0.61
      8.84      -0.27      -0.91
      9.14       0.09      -1.04
      9.08      -0.70      -0.17
      9.03      -0.79      -0.41
      9.14      -0.65      -0.31
      9.37       0.14      -0.60
      8.14      -0.03      -0.28
      8.00       0.04      -0.55
      7.78      -0.69       0.11
      7.68      -0.66       0.37
      7.73      -0.51       0.21
      8.50      -1.12       0.21
      8.36      -1.58       0.01
      7.84      -1.38       0.65
      8.18      -0.51       0.45
      8.65      -0.37      -0.52
      8.70      -0.49      -0.08
      8.10      -0.57       0.21
      8.58      -0.23      -0.03
      8.34      -0.67       0.49
      8.56      -0.39      -0.07
      8.71      -0.69       0.10
      8.03      -0.78      -0.14
      8.28      -0.24      -0.25
      8.88      -0.12      -0.25
      9.29      -0.33      -0.58
      9.08      -0.27      -0.55
      9.69      -0.10      -0.57
      9.23       0.02      -0.71
      9.66      -0.20      -0.68
      9.52      -0.54      -0.34
      9.27      -0.38      -0.62
      8.28      -0.48      -0.81
      7.51      -1.03       0.02
      8.04      -0.76       0.30
      8.38      -0.80       0.03
      8.20      -0.73       0.06
      7.95      -0.58       0.35
      8.08      -1.16       0.13
      7.86      -1.00      -0.25
      8.05      -0.74      -0.21
      8.70      -0.77      -0.43
      8.90      -0.52      -0.10
      8.53      -0.74       0.30
      8.38      -0.49       0.05
      8.00      -0.31       0.25
      8.50       0.11      -0.01
      8.74       0.18       0.14
      8.29      -0.23       0.15
      8.83       0.03      -0.37
      9.14       0.10      -0.32
      9.25       0.04      -0.67
      9.37      -0.15      -0.43
      9.45      -0.24      -0.65
      9.77      -0.54      -1.00
      9.93      -0.37      -0.03
      9.86      -0.13      -0.29
      9.10      -0.52      -0.79
      8.62      -0.99      -0.81
      7.72      -1.27       0.33
      8.21      -0.76       0.52
      8.55      -0.79       0.30
      8.43      -0.28       0.11
      8.31      -0.31       0.32
      7.39      -0.09       0.02
      7.80       0.02      -0.36
      8.46       0.04      -0.75
      8.79      -0.18      -0.85
      8.92      -0.64      -0.12
      8.72      -0.41       0.33
      8.21      -0.82       0.52
      8.33      -0.21       0.28
      9.72       0.29      -0.25
      8.59       0.40      -0.16
      8.72       0.26      -0.27
      8.84       0.43      -0.37
      9.23      -0.15      -0.20
      9.68      -0.51      -0.29
      9.66      -0.49      -0.35
      9.67      -0.60      -0.33
      9.75      -0.64      -1.07
      9.77      -0.53      -0.68
      9.87      -0.42      -0.44
      8.66      -1.11      -0.35
      8.75      -1.52      -0.62
      7.97      -1.81       0.32
      8.28      -0.66       0.53
      7.44      -0.66       0.69
      8.57      -0.18      -0.05
      8.13       0.20       0.54
      9.22       0.55       0.08
      8.27       0.62      -0.05
      9.34       0.62      -0.36
      9.36       0.58      -0.43
      8.92      -0.44      -0.10
      8.96      -0.49       0.32
      9.07      -0.36       0.61
      8.56      -0.08       0.26
      9.19       0.04       0.01
      9.05      -0.41      -0.05
      8.76       0.06      -0.00
      8.95      -0.16      -0.03
      9.49      -0.42       0.18
      9.43      -0.23      -0.24
      9.55      -0.25      -0.55
      9.43       0.12      -0.26
      9.20       0.20      -1.12
      9.69      -0.43      -0.47
      9.78      -0.77      -0.21
     10.05      -0.55      -0.14
      9.32      -0.65      -0.04
      9.85      -0.12      -0.19
      9.19      -0.74      -0.01
      8.48      -0.43       0.09
      9.13       0.20       0.08
      9.49       0.27       0.27
      8.15       0.33       0.41
      8.36       0.70      -0.03
      9.44       0.62      -0.10
      9.02       0.38       0.21
      8.89       0.20       0.61
      8.46      -0.34      -0.06
      8.63      -0.38       0.10
      8.86       0.08       0.35
      8.91       0.22       0.21
      9.00       0.04       0.10
      9.02      -0.38       0.11
      9.19      -0.31       0.10
      9.59      -0.45       0.50
      9.68      -0.27      -0.20
      9.10      -0.53      -0.74
      9.43      -0.26      -0.51
     10.04      -0.45      -0.57
      9.58      -0.43      -0.14
      9.89      -0.59      -0.34
      9.99      -0.54      -0.45
     10.05      -0.46      -0.56
     10.22      -0.33      -0.43
      7.89      -1.06       0.49
      9.36      -0.54       0.62
      7.67       0.02       0.57
      8.61       0.33       0.16
      8.42       0.85      -0.05
      8.64       0.72       0.22
      8.90       0.88       0.38
      8.96       0.90       0.34
      8.67       0.85       0.34
      8.51       0.48       0.43
      8.70      -0.02       0.07
      9.40      -0.21       0.16
      9.24      -0.32      -0.00
      9.09      -0.23       0.45
      8.95      -0.52       0.15
      9.54      -0.19       0.31
      9.25      -0.02       0.52
      8.76       0.30      -0.29
      9.98       0.29      -0.60
      9.86      -0.21      -0.66
      9.87      -0.13      -0.19
      9.75      -0.51      -0.29
      9.95      -0.30      -0.42
      9.74      -0.65      -0.28
     10.24      -0.48      -0.27
     10.34      -0.36      -0.30
      9.23      -0.93       0.41
      9.31      -0.90       0.74
      9.36      -0.40       0.44
      9.62      -0.47      -0.14
      9.96      -0.84      -0.59
     10.47      -0.60      -0.25
      9.81      -0.32       0.26
      9.88      -0.27      -0.32
      9.22       0.19       0.64
      8.96       0.45       0.47
      8.66       0.25       0.05
      9.32      -0.30       0.55
      9.67      -0.27      -0.04
      9.62      -0.52       0.38
      9.59      -0.47       0.12
      9.17      -0.16       0.28
      9.33       0.08       0.26
      9.35      -0.04      -0.21
      9.63      -0.18      -0.40
      9.90      -0.46       0.07
     10.31      -0.62      -0.32
     10.05      -0.49      -0.40
     10.15      -0.57      -0.26
     10.25      -0.65      -0.43
     10.25      -0.72      -0.33
     10.25      -0.71      -0.43
      9.90      -1.16       0.53
      9.82      -0.99       0.16
      9.89      -0.91       0.18
     10.14      -0.85      -0.33
      9.74      -1.14      -0.67
     10.08      -1.06      -0.33
      9.42      -1.04      -0.84
      9.46      -0.84      -0.55
      9.75      -0.88       0.14
      9.41      -0.32       0.15
      9.10      -0.36       0.16
      9.51      -0.49       0.41
      9.85      -0.35      -0.10
      9.35      -0.65       0.04
      9.16      -0.59      -0.21
      9.13      -0.61       0.09
      8.86      -0.25      -0.11
      9.65      -0.29      -0.37
      9.67      -0.83      -0.23
      9.60      -0.56       0.20
     10.22      -0.53      -0.29
     10.30      -0.97      -0.43
     10.33      -1.05      -0.39
     10.11      -0.83      -0.42
     10.47      -1.04      -0.35
     10.60      -1.07      -0.44
