# vtk DataFile Version 3.0
Low resolution, disturbed wind of XY Slice at time = 33 seconds.
ASCII
DATASET STRUCTURED_POINTS
DIMENSIONS    47    26     1
ORIGIN     635.00     635.00      85.00
SPACING      30.00      30.00      30.00
POINT_DATA            1222
VECTORS DisXY float
      9.05      -0.07       0.74
      8.36      -0.32       0.13
      8.44      -0.16      -0.09
      8.63      -0.56      -0.08
      8.96       0.22       0.21
      9.09       0.40       0.18
      9.00       0.68      -0.01
      8.88       0.39       0.72
      9.00       0.77       0.46
      9.40       0.68       0.13
      8.26       0.31       0.35
      8.14       0.25       0.80
      7.82       0.66       0.75
      8.27       0.73       0.63
      8.78       0.31       0.62
      8.54      -0.03       0.16
      8.68       0.25      -0.19
      8.78       0.12      -0.03
      8.94       0.13      -0.39
      9.07       0.48       0.18
      9.11       0.00      -0.03
      8.83      -0.20       0.11
      8.59       0.27      -0.44
      9.12       0.97       0.51
      9.33       0.84      -0.52
      8.67       1.51       0.01
      7.59       0.31       0.48
      8.05       0.48       0.29
      8.45       0.61      -0.54
      8.50       0.19      -0.25
      8.24       0.13      -0.15
      8.55      -0.03       0.35
      8.54      -0.67      -0.48
      8.83       0.89       0.41
      7.44       0.01       0.65
      7.69       0.01      -0.38
      7.55       0.26       0.40
      6.98      -0.09       0.45
      6.89       0.04       0.39
      6.65      -0.99       0.46
      6.89       0.22       0.38
      6.61       0.07      -0.04
      6.64      -0.28       0.07
      6.76       0.29       0.53
      6.52      -0.14       0.19
      6.90      -0.12       0.21
      7.54       0.30       0.42
      7.81      -0.22       0.25
      7.70      -0.06       0.29
      7.59      -0.55       0.24
      7.97      -1.10       0.27
      8.05      -0.43      -0.41
      8.32       0.72       0.17
      7.68       0.64       0.64
      7.82       0.21       0.97
      7.53       0.18       0.59
      7.76       0.55       0.20
      8.00       0.51       0.10
      8.07       0.35       0.42
      7.80       0.57       0.49
      7.69       0.38       0.18
      7.94       0.29      -0.08
      7.86       0.02      -0.10
      8.26       0.15      -0.09
      7.30      -0.20      -0.01
      7.16       0.08       0.81
      7.40       0.61       0.46
      8.26      -0.18      -0.12
      8.86       0.06      -0.17
      8.57       0.29      -0.08
      8.73       0.32       0.02
      8.87       1.14      -0.31
      9.15       0.85      -0.29
      8.97       0.71       0.15
      8.64       0.50      -0.30
      8.22       0.75      -0.07
      8.56       0.38       0.10
      8.29       0.19       0.14
      8.15      -0.20       0.60
      8.17      -0.51      -0.29
      8.16       1.11       0.60
      8.15       0.65      -0.01
      8.84      -0.22       0.07
      7.75       1.01      -0.03
      7.84       0.54      -0.33
      8.20       0.01       0.51
      7.52      -0.50       0.14
      7.52      -0.01      -0.25
      7.21      -0.32       0.04
      7.43      -0.48      -0.21
      7.67       0.37      -0.04
      7.71       0.45      -0.28
      7.20      -0.55       0.56
      6.71       0.39       0.69
      8.04      -0.61      -0.12
      8.03      -0.41      -0.04
      8.01      -0.41      -0.54
      7.73      -1.05      -0.29
      7.77      -0.19       0.20
      7.57       0.90       0.32
      8.03       0.90       0.79
      7.91       0.35       0.63
      7.24       0.27       0.04
      7.19       0.31       0.03
      7.35       0.17       0.15
      7.35       0.24       0.45
      7.37      -0.01       0.38
      7.44       0.15       0.42
      7.48       0.14       0.42
      7.83      -0.02      -0.03
      8.17       0.34      -0.12
      8.16       0.24       0.19
      7.87       0.13       0.25
      8.76       0.06      -0.07
      8.47       0.18      -0.05
      7.74      -0.17       0.18
      8.06       0.25       0.25
      8.48       0.46      -0.01
      8.53       0.58      -0.62
      8.48       0.76      -0.14
      8.73       0.66      -0.62
      7.94       0.55       0.03
      8.01       0.84       0.23
      8.91       0.70       0.61
      8.76       0.35       0.68
      8.09      -0.20      -0.26
      7.46      -0.43       0.26
      7.84       0.59       0.47
      8.11       0.64      -0.05
      7.57       0.15       0.50
      8.18       0.55       0.04
      7.90       0.74      -0.05
      7.27      -0.01       0.38
      7.03      -0.23       0.21
      7.20      -0.60       0.36
      7.17      -0.78       0.56
      7.36      -0.34       0.13
      7.48       0.22      -0.41
      8.01       0.21      -0.73
      8.20       0.28      -0.02
      7.36       0.50       0.09
      7.31      -0.28      -0.17
      6.94      -1.11      -0.05
      7.23      -0.50      -0.52
      6.86      -0.18       0.27
      6.84      -0.45       0.98
      7.04      -0.08       0.77
      7.16      -0.16       0.68
      7.20       0.58      -0.31
      7.02      -0.03       0.11
      7.04       0.36       0.81
      7.05      -0.22       0.37
      7.33       0.19       0.32
      7.54       0.09       0.43
      7.68       0.38      -0.39
      7.94       0.11      -0.43
      7.94       0.11       0.27
      7.82       0.51      -0.54
      7.97       0.30      -0.18
      7.13      -0.27      -0.24
      7.55      -0.14       0.33
      7.43      -0.03       0.23
      7.44      -0.27       0.60
      7.78      -0.06       0.51
      7.22       0.11       0.13
      7.30       0.49      -0.32
      7.51      -0.11       0.24
      7.68       0.62       0.74
      7.91       0.59       0.95
      7.47       0.65       0.81
      7.34       0.67       0.30
      7.99       0.31       0.02
      7.83       0.30      -0.11
      7.70       0.31      -0.45
      7.52       0.13      -0.05
      7.51       1.17       0.10
      7.40       0.09       0.54
      7.06       0.16       0.21
      7.37       0.44       0.45
      7.57       0.46       0.14
      7.59       0.13       0.20
      7.04      -0.23       0.42
      7.29      -0.51       0.67
      7.91      -0.09      -0.07
      7.74      -0.19      -0.71
      7.82      -0.21      -0.72
      8.29      -0.14      -0.35
      7.86       0.93      -0.34
      7.91      -0.73      -0.03
      9.18      -0.00      -0.34
      8.13      -0.18      -0.18
      7.02       0.24       0.01
      6.98       0.50       0.29
      6.39      -0.06       0.41
      6.12       0.19       0.57
      6.16       0.69       0.58
      6.94       0.44       0.28
      6.87      -0.07      -0.26
      6.58      -0.61       0.16
      6.35       0.15       0.30
      7.01       0.20       0.29
      6.96      -0.06       0.57
      7.41       0.81       0.30
      6.92       0.28      -0.01
      6.20       0.29       0.63
      6.24       0.09       0.48
      6.51       0.25       0.62
      6.53      -0.58       0.89
      6.53      -0.63       0.01
      6.98      -0.10      -0.01
      6.99       0.33       0.41
      6.82       0.02       0.49
      7.21       0.25       0.20
      7.65       0.30      -0.13
      6.94       0.53       0.77
      7.19       0.52       0.16
      7.11       0.37       0.06
      7.14       0.60       0.38
      7.38       0.75      -0.22
      7.22      -0.16       0.23
      7.70       0.48       0.08
      7.44       0.44       0.09
      7.54       0.84      -0.10
      7.65       0.49       0.43
      7.36       0.14       0.14
      7.74       0.21       0.39
      7.92       0.04       0.05
      7.93      -0.07      -0.19
      8.17      -0.24      -0.13
      7.59       0.16       0.60
      7.03       0.08       0.88
      7.06      -0.04      -0.06
      7.24      -0.66       0.06
      7.02      -0.11       0.19
      7.58       0.47      -0.71
      7.18      -0.37       0.70
      7.15      -0.13       0.13
      7.25       0.17       0.27
      6.95       0.06       0.33
      7.28       0.22       0.02
      7.58       0.76      -0.10
      7.45       0.81      -0.22
      6.78       0.15       0.19
      6.83       0.12       0.18
      7.27       0.04      -0.07
      7.49       0.26      -0.21
      7.32       0.17      -0.33
      7.89      -0.20      -0.38
      8.07      -0.29      -0.50
      7.59       0.18      -0.25
      7.20       0.38      -0.46
      6.71       0.41       0.05
      6.75       0.39       0.22
      6.96       0.05       0.09
      6.99      -0.17       0.38
      6.54      -0.64       0.60
      6.95      -0.03       0.81
      7.08       0.08       0.28
      7.03       0.56       0.24
      6.86       0.20       0.39
      6.90       0.32       0.82
      6.71       0.07       0.89
      6.64      -0.09       0.68
      6.88       0.00       0.42
      7.26       0.15       0.32
      7.72       0.18       0.07
      7.67      -0.04      -0.14
      7.74      -0.13      -0.18
      7.76       0.05      -0.09
      7.76       1.05      -0.01
      7.90       0.72      -0.07
      7.92       0.36      -0.10
      7.98       0.06      -0.04
      7.50      -0.05      -0.02
      7.22       0.08      -0.31
      7.08       0.12       0.11
      7.16      -0.04       0.16
      7.70      -0.20       0.03
      7.70      -0.22      -0.40
      7.23       0.10      -0.26
      6.86      -0.01       0.34
      6.64       0.49       0.49
      6.72      -0.55       0.73
      6.32      -0.21       0.25
      6.74      -0.01       0.46
      7.36       0.01       0.22
      7.12       0.09       0.07
      7.29       0.40      -0.05
      7.82       0.89      -0.31
      7.45       0.61       0.00
      7.14       0.33      -0.12
      7.00      -0.35       0.35
      7.39      -0.20       0.67
      7.42      -0.15       0.60
      7.78      -0.45       0.29
      8.17      -0.03      -0.15
      8.40       0.15      -0.64
      8.18       1.23      -0.04
      7.80       0.05      -0.53
      8.06      -0.17      -0.33
      8.22      -0.30       0.02
      8.14      -0.22      -0.34
      7.64      -0.45       0.16
      7.85       0.01      -0.20
      7.45       0.29       0.43
      7.06       0.52       0.10
      7.31       0.17      -0.18
      7.12       0.39       0.35
      7.01       0.19       0.17
      6.79       0.15       0.52
      7.30       0.35       0.19
      7.81       0.24      -0.27
      7.77       0.18      -0.39
      7.99      -0.18      -0.48
      8.15      -0.04      -0.45
      7.79       0.37      -0.13
      7.78       0.31      -0.29
      7.95       0.40      -0.34
      7.48       0.53       0.35
      7.36       0.35       0.20
      7.42       0.14       0.10
      7.23       0.41      -0.23
      7.12       0.23      -0.02
      7.08      -0.07      -0.02
      7.30      -0.07       0.27
      7.43       0.00       0.14
      7.21       0.02       0.25
      7.36       0.11      -0.07
      7.22       0.32       0.00
      7.77      -1.09      -0.17
      7.87      -0.31       0.13
      7.70       0.06       0.05
      7.54       0.05       0.29
      7.69       0.30       0.09
      8.07       0.09      -0.43
      8.31       0.76      -0.28
      7.32       0.84      -0.11
      7.31       0.26       0.47
      7.99      -0.62       0.08
      7.93      -0.83      -0.50
      7.92      -0.62       0.09
      7.97      -0.20      -0.16
      8.20      -0.02      -0.16
      7.95       0.37      -0.04
      8.15       0.30      -0.30
      8.71       0.10      -0.17
      8.35       0.05      -0.44
      7.94      -0.10      -0.24
      8.06      -0.02       0.20
      7.73       0.02       0.16
      7.16      -0.45       0.30
      7.13       0.04       0.65
      7.77       0.65       0.19
      7.49       0.64      -0.20
      7.04      -0.10       0.20
      7.48      -0.33       0.30
      7.76      -0.02       0.21
      7.54       0.15       0.04
      7.75       0.21      -0.01
      7.76       0.23      -0.14
      7.18      -0.21      -0.10
      7.11       0.15      -0.10
      7.47       0.13      -0.43
      7.72       0.24      -0.32
      7.54       0.22      -0.12
      7.61       1.07       0.40
      7.83       0.29       0.02
      7.96       0.15      -0.39
      8.12      -0.14      -0.23
      7.95       0.18      -0.18
      7.61      -0.69      -0.37
      7.99      -0.34      -0.37
      7.42       0.15      -0.34
      7.48       0.36       0.25
      7.53       0.20      -0.25
      7.32       0.13      -0.29
      8.28      -1.00       0.29
      8.09      -0.92      -0.32
      8.11      -0.62      -0.43
      7.33       0.43       0.15
      7.91       0.30       0.56
      8.27       0.06      -0.04
      7.86       0.36      -0.41
      7.41       0.62       0.12
      8.08      -0.29      -0.08
      8.17      -0.63       0.04
      7.60      -0.52      -0.15
      7.67      -0.39       0.33
      7.73      -0.35       0.47
      8.31       0.25      -0.04
      8.18       0.39      -0.03
      8.10      -0.19      -0.16
      8.07      -0.00      -0.22
      8.25      -0.01       0.02
      8.31       0.32      -0.39
      7.62       0.15      -0.25
      8.07       0.33      -0.09
      7.92       0.02      -0.29
      6.94      -0.10       0.40
      7.35       0.27       0.50
      7.59       0.25       0.08
      7.61      -0.18      -0.08
      7.31      -0.53       0.25
      6.87      -0.53      -0.00
      7.18      -0.45       0.06
      7.98      -0.32       0.00
      8.14       0.24      -0.15
      7.72       0.01      -0.19
      7.47      -0.03      -0.08
      7.70       0.06      -0.48
      7.31       0.24      -0.09
      7.54       0.24      -0.01
      7.78       0.35       0.29
      7.53       0.08       0.09
      7.56      -0.63      -0.15
      7.59      -0.18      -0.16
      8.31       0.32      -0.07
      7.91      -0.26      -0.22
      7.84      -0.42       0.14
      8.07       0.21      -0.23
      7.80       0.16       0.08
      7.54       0.20      -0.27
      7.32      -0.03       0.07
      8.58      -1.11      -0.48
      8.96      -1.13      -0.61
      8.54      -0.69      -0.48
      8.90       0.16      -0.43
      8.92       0.04      -0.04
      8.52       0.42      -0.47
      8.03       0.66      -0.06
      8.20       0.25      -0.14
      8.01      -0.15       0.18
      8.57      -0.19      -0.09
      7.55      -0.62       0.72
      7.62      -0.31       0.11
      7.78       0.00      -0.04
      7.96      -0.05      -0.03
      7.77      -0.26       0.13
      7.91       0.38       0.15
      7.94      -0.19       0.17
      7.89       0.27       0.03
      7.39       0.88       0.27
      7.26       0.41       0.26
      7.81       0.22       0.10
      7.30       0.27       0.40
      7.15       0.09       0.55
      7.55       0.07      -0.13
      7.38      -0.38       0.26
      7.97      -0.29       0.09
      7.70      -0.32       0.04
      8.27      -0.73      -0.47
      7.53      -0.78      -0.10
      7.83      -0.65      -0.10
      8.02       0.25      -0.10
      7.53      -0.04       0.11
      7.50       0.40      -0.54
      7.19       0.12      -0.44
      7.10       0.26       0.09
      6.95      -0.10       0.41
      7.19      -0.48      -0.06
      7.93       0.14      -0.59
      7.76       0.03      -0.59
      8.03      -0.25       0.04
      7.65       0.14       0.27
      7.08      -0.07       0.63
      7.02      -0.38       0.43
      7.66       0.25      -0.19
      6.82       0.06      -0.13
      7.18      -0.56      -0.05
      7.52       0.20      -0.12
      7.35      -0.57       0.06
      6.88      -0.58       0.07
      7.68      -0.66      -0.17
      8.32       0.53       0.42
      8.02       0.59      -0.08
      8.04       0.17      -0.50
      8.29       0.34      -0.43
      8.29       0.28      -0.61
      8.65       0.23      -0.06
      7.34      -0.09      -0.08
      7.88       0.12      -0.39
      7.43       0.26       0.06
      4.89      -0.02      -0.01
      4.06      -0.48       0.57
      4.55      -0.07       0.44
      4.52      -0.30       0.59
      5.25      -0.31      -0.05
      5.78       0.65       0.41
      6.10       0.57       0.52
      5.73       0.63       0.31
      7.50       0.37       0.04
      7.68       0.26       0.30
      7.67       0.36       0.34
      7.35      -0.09       0.53
      7.52      -0.25       0.25
      8.01      -0.13       0.22
      7.12      -0.49       0.22
      7.70      -0.52      -0.45
      7.56       0.14      -0.32
      7.10       0.01       1.03
      7.82       0.16       0.21
      7.07       0.39      -0.11
      7.40       0.32       0.06
      7.28       0.08       0.06
      7.14       0.09       0.18
      6.83      -0.13       0.01
      6.44      -0.49       0.34
      6.44      -0.35      -0.20
      6.80       0.02      -0.47
      6.66       0.01       0.16
      7.49       0.44      -0.01
      6.89       0.68       0.03
      6.61       0.06       0.49
      7.44       0.06       0.16
      7.92       0.22      -0.51
      8.05       0.01      -0.29
      7.15       0.06       0.32
      7.39      -0.27      -0.06
      6.70      -0.20       0.44
      6.47      -0.21       1.35
      6.88       0.47       0.51
      6.87       0.19      -0.20
      7.15      -0.09      -0.38
      7.70       0.10      -0.34
      7.38      -0.12       0.19
      7.88       0.16      -0.09
      7.94       0.36      -0.16
      7.27       0.10       0.05
      7.51       0.38       0.08
      4.52      -0.36       0.26
      3.02       0.03       0.56
      2.93      -0.14       0.92
      2.80       0.05       0.78
      2.61       0.43       0.84
      2.78       0.59       0.77
      3.18       0.98       0.57
      3.89       0.40       0.58
      7.89       0.21       0.25
      7.95       0.04       0.34
      7.41       0.31       0.63
      7.31       0.12       0.38
      7.89      -0.18       0.03
      7.69      -0.48       0.25
      7.80      -0.50       0.17
      7.74      -0.38      -0.53
      7.30       0.00      -0.33
      6.87       0.81       0.41
      7.00       0.35       0.55
      7.00       0.23       0.12
      6.78      -0.03       0.11
      7.12       0.20      -0.16
      7.22       0.34       0.26
      7.20      -0.00      -0.16
      7.00       0.18      -0.22
      6.44      -0.47       0.58
      6.71      -0.48       0.17
      6.78      -0.17       0.06
      6.82      -0.19       0.20
      6.98       0.45       0.29
      6.54       0.15       0.47
      7.41      -0.32      -0.04
      7.27       0.02      -0.06
      7.39       0.05      -0.64
      7.14       0.51       0.31
      7.26      -0.64       0.36
      7.09       0.03       0.49
      7.44       0.24       0.31
      6.85      -0.04       0.57
      6.81       0.21       0.15
      7.07       0.22       0.32
      6.84       0.26       0.17
      6.76       0.20       0.04
      6.50       0.22       0.15
      6.51      -0.10       0.17
      6.68      -0.18       0.60
      6.68      -0.25       0.26
      4.30      -0.13       0.19
      3.93      -0.09       0.52
      4.07      -0.23       0.70
      3.82      -0.10       0.80
      4.11       0.26       0.93
      4.21       0.38       0.73
      4.04       0.25       0.65
      4.43      -0.19       0.59
      7.77       0.01       0.39
      7.57       0.49       0.42
      7.62       0.24       0.69
      7.59      -0.38       0.27
      7.49       0.08       0.08
      7.93      -0.18       0.15
      7.85      -0.33       0.08
      7.47      -0.15      -0.18
      7.03       0.43       0.38
      6.45       0.24       0.45
      7.01      -0.02       0.31
      7.63      -0.30      -0.16
      7.35      -0.29       0.08
      7.84      -0.07       0.05
      7.78       0.34       0.08
      7.17       0.15      -0.46
      6.87       0.51       0.51
      6.57      -0.07      -0.01
      6.50      -0.97       0.58
      7.94      -0.45      -0.16
      8.04      -0.60      -0.85
      7.04       0.64       0.35
      7.23       0.15      -0.25
      7.61      -0.10      -0.14
      7.17       0.19      -0.37
      7.30       0.63      -0.06
      7.71       0.14      -0.20
      6.73      -0.76      -0.20
      6.77      -0.71       0.20
      7.08      -0.29       0.06
      7.11      -0.39       0.16
      7.23       0.15       0.35
      6.99       0.18       0.34
      6.62       0.09      -0.01
      6.69       0.32       0.02
      6.73      -0.38       0.68
      6.76      -0.54       0.51
      7.28      -0.67      -0.16
      7.48      -0.75      -0.16
      5.06      -0.59      -0.20
      4.03      -0.67       0.03
      3.80      -0.33       0.30
      3.73       0.15       0.50
      3.67       0.16       0.36
      3.92      -0.08       0.68
      4.08       0.14       0.36
      4.38       0.09       0.30
      8.02       0.26      -0.34
      7.63       0.49      -0.32
      7.89       0.24      -0.13
      7.34       0.01       0.57
      7.14      -0.36       0.70
      7.68      -0.29       0.77
      7.33      -0.03       0.65
      7.19       0.36      -0.32
      7.23       1.00       0.00
      7.37      -0.09       0.03
      7.78      -0.60      -0.31
      6.96      -0.06       0.27
      7.53      -0.61       0.25
      7.48      -0.12       0.62
      6.87       0.18       0.59
      8.17       0.97      -0.23
      7.97       0.38      -0.41
      7.39       0.01      -0.47
      7.99      -0.69      -0.91
      6.81      -1.09       0.03
      6.02      -0.57       0.84
      6.31      -0.14       0.39
      7.45       0.10       0.36
      7.35       0.35      -0.29
      7.87      -0.16      -0.25
      7.36      -0.22      -0.01
      8.08       0.83      -0.55
      6.84      -0.51      -0.11
      6.32      -0.40       0.65
      6.23      -0.44       0.44
      6.35      -0.44       0.44
      6.52      -0.25       0.25
      6.65      -0.06       0.11
      6.86      -0.05       0.05
      6.47      -0.13       0.17
      6.54      -0.11      -0.08
      6.80      -0.22      -0.57
      6.88      -0.60      -0.40
      6.99      -0.36       0.11
      4.05       0.03       0.62
      3.08      -0.26       0.38
      3.45      -0.24       0.44
      3.91      -0.36       0.42
      4.32      -0.49       0.64
      5.15      -0.06       0.30
      5.03      -0.07       0.16
      5.07       0.27       0.23
      7.91       0.09      -0.74
      7.95      -0.20      -0.31
      8.12      -0.16      -0.27
      8.62       0.54      -0.38
      8.23       0.06      -0.22
      7.24       0.28       0.16
      7.44       0.36       0.35
      7.42      -0.10       0.41
      8.04       0.11      -0.15
      7.92       0.30      -0.76
      7.64      -0.08      -0.23
      7.45      -0.19      -0.21
      7.05       0.24       0.70
      6.50       0.07       0.40
      6.75       0.14       0.68
      7.21       0.02       0.59
      7.77       0.21      -0.53
      7.82      -0.28      -0.34
      7.39      -0.26      -0.90
      6.72       0.45      -0.45
      7.42       0.01       0.09
      7.16      -0.53      -0.26
      6.89       0.33       0.93
      7.04      -0.02      -0.02
      7.23      -0.09       0.10
      7.25       0.08       0.45
      6.76      -0.03       0.23
      6.99      -0.39       0.14
      7.04      -0.34       0.33
      6.50      -0.43       0.45
      7.61      -0.92       0.68
      6.96      -1.35       0.88
      7.76      -1.11       0.32
      6.97      -0.84       0.79
      6.79      -0.83       0.29
      7.00      -0.65      -0.35
      6.67       0.14      -0.49
      7.35      -0.12       0.13
      7.56      -0.44       0.01
      7.30      -0.15      -0.09
      7.41      -0.59       0.44
      7.43      -0.50       0.46
      7.31      -0.70       0.12
      7.28      -0.87       0.19
      7.41      -0.25      -0.21
      7.04      -0.04      -0.55
      7.21      -0.24      -0.46
      7.48      -0.07      -0.39
      7.98      -0.48      -0.24
      6.83      -0.28      -0.18
      6.45       0.26       0.29
      6.97       0.23       0.28
      7.07      -0.34      -0.27
      7.99       0.18      -0.05
      8.32      -0.25      -0.32
      8.23      -0.05      -0.44
      7.56       0.00      -0.70
      7.59       0.07       0.16
      7.32       0.08      -0.76
      6.72       1.06       0.73
      7.29      -0.49       0.34
      7.63      -0.41      -0.00
      7.24      -1.08       0.42
      8.02      -0.21       0.42
      7.91      -0.65       0.19
      8.06      -0.22      -0.71
      7.70       0.29      -0.55
      8.05       0.75       0.07
      7.40       0.36      -0.19
      7.17       0.23      -0.30
      7.29       0.48       0.38
      6.61       0.02       0.87
      6.83       0.07       0.68
      7.16       0.16       0.27
      7.84       0.03      -0.25
      8.00      -0.43       0.19
      8.34      -0.16      -0.01
      8.28      -0.72      -0.07
      7.98      -0.26       0.23
      7.73      -0.80       0.65
      6.42      -0.27       0.48
      7.14      -0.12      -0.44
      6.71       0.10      -0.73
      6.91       0.34      -1.00
      7.68       0.18      -1.25
      8.10      -0.30      -1.01
      7.86      -0.45      -0.17
      7.98      -0.89       0.21
      7.54      -0.69       0.38
      7.70      -1.01      -0.06
      7.30      -0.08       0.20
      7.28      -0.66       0.45
      7.09      -0.62      -0.14
      7.71      -0.50      -0.38
      7.32      -0.05      -0.21
      6.99      -0.57      -0.01
      6.74       0.24      -0.10
      6.45      -0.45       0.42
      6.23      -0.29       0.73
      6.48      -0.05       0.73
      6.49       0.10       0.15
      6.80      -0.09       0.34
      6.69       0.34       0.65
      6.64       0.40      -0.27
      7.54      -0.39       0.14
      7.73      -0.22       0.51
      8.18       0.35       0.44
      7.73      -0.35      -0.29
      6.86      -0.17       0.69
      6.78      -0.60       0.17
      6.67      -0.75       0.53
      6.93      -0.58       0.48
      6.59      -0.31       0.37
      6.91      -0.10       0.20
      7.32       0.31       0.19
      7.34       0.83       0.02
      7.70       0.32       0.36
      7.14       0.95       0.05
      7.07       0.57      -0.22
      7.31       0.59      -0.46
      6.84       0.96      -0.03
      8.01      -0.20      -0.41
      8.06       0.03      -0.56
      8.59      -0.04      -0.23
      8.88      -0.16      -0.07
      8.86      -0.33      -0.67
      7.96      -0.17      -0.28
      8.05      -0.05       0.09
      8.24      -0.38       0.24
      8.25       0.12      -0.29
      7.77      -0.30      -0.40
      8.12      -0.35      -0.68
      7.99       0.12      -0.70
      7.79       0.17      -0.98
      8.51      -0.22      -0.64
      8.79      -0.85      -0.38
      8.12      -0.44      -0.38
      7.75      -0.23       0.53
      7.84      -0.38       0.06
      7.93      -0.88      -0.34
      7.52      -0.37       0.09
      7.58      -0.39      -0.16
      7.58       0.15      -0.02
      6.88       0.33       0.39
      6.81       0.20       0.26
      6.47      -0.10       0.40
      7.23      -0.30       0.41
      7.62      -0.51       0.24
      7.24       0.07       0.33
      7.04       0.03       0.20
      7.59      -0.78       0.15
      7.85      -0.96      -0.20
      7.80      -0.70       0.03
      8.24      -0.52      -0.75
      8.62      -0.14      -0.08
      7.92       0.22      -0.35
      7.36      -0.38      -0.53
      7.41      -0.42       0.24
      6.86       0.01       1.19
      7.07      -0.37       0.73
      7.02      -0.48       0.37
      7.07      -0.57       0.78
      7.90       0.25      -0.22
      7.50       0.11       0.01
      7.57       0.56       0.37
      7.50       0.68       0.38
      7.28       0.41       0.07
      7.93       0.64      -0.38
      8.44      -0.60       0.08
      8.34      -0.33       0.06
      8.30      -0.22       0.28
      8.06      -0.19       0.34
      7.67       0.33       0.11
      8.42      -0.25       0.07
      8.59       0.03       0.09
      7.41      -0.36       0.51
      7.43       0.01       0.16
      7.91      -0.67      -0.26
      7.09      -0.39       0.76
      7.12      -0.24      -0.27
      7.59      -0.02      -0.30
      7.58      -0.58      -0.49
      8.04      -0.46      -0.59
      8.52       0.25      -0.81
      8.77       0.02       0.25
      8.64      -0.37      -0.06
      7.70      -0.38      -0.17
      7.75       0.34      -0.17
      7.10       0.07       0.55
      7.24       0.07       0.02
      7.36       0.42       0.29
      6.95       0.13       0.85
      6.94      -0.71       0.68
      7.51      -1.40       0.34
      7.56      -0.93       0.07
      7.40      -0.34       0.34
      7.90      -0.35       0.03
      7.81      -0.54       0.17
      7.70      -0.79      -0.21
      7.95      -0.92      -0.01
      7.89      -0.58       0.31
      8.30      -0.30      -0.65
      8.63      -0.37      -0.94
      8.45       0.15      -0.73
      8.54      -0.17      -0.72
      7.59       0.11       0.72
      7.65      -0.21       0.43
      7.40      -0.45       0.18
      7.58      -0.35      -0.27
      7.33       0.11       0.17
      7.38       0.41       0.31
      7.41       0.59       0.50
      7.67      -0.20      -0.06
      7.73       0.12      -0.04
      7.82       0.45      -0.10
      8.45      -0.00      -0.51
      8.57      -0.43      -0.45
      8.51      -0.31      -0.66
      8.61      -0.00       0.08
      8.82      -0.42       0.00
      8.65      -0.11      -0.04
      8.48      -0.72       0.24