# vtk DataFile Version 3.0
Low resolution, disturbed wind of YZ Slice at time = 33 seconds.
ASCII
DATASET STRUCTURED_POINTS
DIMENSIONS     1    26    12
ORIGIN    1378.00     635.00      15.00
SPACING      30.00      30.00      30.00
POINT_DATA             312
VECTORS DisYZ float
      7.96      -0.55      -0.60
      6.54       1.93      -0.34
      6.08       1.38       0.30
      5.37       0.60       0.22
      4.85       0.65       0.12
      4.76       0.39      -0.18
      4.75       0.15       0.11
      4.82      -0.23       0.07
      5.87       0.05      -0.52
      4.34       0.87       0.25
      5.52       0.09      -0.51
      3.58      -1.13       0.86
      4.02      -0.63       0.10
      4.94      -0.49       0.05
      4.10       0.28       0.07
      5.82      -0.05       0.02
      4.99      -0.13       0.57
      5.64       0.02       0.03
      4.95       0.06      -0.52
      6.08       0.63       0.25
      5.37       0.06       0.01
      4.38      -0.17      -0.13
      7.09       0.84       0.13
      6.40       0.35       0.11
      6.38       0.06      -0.06
      4.77      -0.17       0.07
      8.83       0.14      -0.23
      8.54       0.37      -0.56
      8.20       0.75      -0.11
      6.60       0.04       0.11
      5.69       0.50       0.47
      5.78       0.20      -0.11
      7.28       0.08      -0.00
      7.09       0.41       0.03
      6.86      -0.39      -0.39
      5.71      -0.05      -0.14
      4.90      -0.06       0.71
      7.43      -0.26      -0.12
      6.26      -0.71       0.45
      5.30       0.00       0.73
      6.48       0.97      -0.06
      7.55       1.02      -0.21
      6.99       0.59      -0.03
      6.10       0.17       0.08
      7.36       0.11      -0.57
      6.20      -0.90       0.33
      6.20      -0.27       0.65
      7.70      -0.40       0.28
      6.55      -1.18      -0.46
      7.48      -0.25       0.44
      7.66      -0.12       0.56
      8.14      -0.59      -0.11
      8.67       1.47      -0.16
      9.02       0.80      -0.51
      8.42       0.88      -0.40
      7.58       0.13       0.22
      7.68       0.27       0.15
      6.65       0.10       0.78
      7.07       0.17       0.03
      6.97      -0.04       0.02
      7.75      -0.17      -0.19
      7.74      -0.42       0.16
      7.77      -0.24       0.33
      7.65      -0.77       0.22
      7.65      -0.24       0.12
      7.33      -0.24       0.97
      6.82       0.42       0.22
      6.83      -0.50      -0.37
      6.20      -0.20       0.83
      6.93      -0.05       0.28
      6.99      -1.64       0.47
      7.63      -1.41       0.39
      7.42      -0.83       0.27
      8.58       0.36      -0.34
      8.03      -0.17      -0.41
      7.95      -0.52      -0.06
      8.44      -0.05       0.09
      8.52      -0.40      -0.16
      9.12       1.12      -0.02
      9.22       1.16       0.14
      8.63       0.40       0.05
      7.21      -0.17      -0.13
      7.27       0.32      -0.47
      7.37       0.68       0.60
      7.34       0.67       0.62
      7.51       0.30       0.28
      7.31       0.09       0.24
      8.02      -0.10       0.07
      8.13      -0.01       0.02
      7.90       0.29       0.15
      8.18       0.12       0.16
      8.00      -0.44       0.32
      8.76      -0.15      -0.23
      7.48       0.37       0.32
      6.88       0.06       0.54
      7.29      -0.66       0.68
      8.15      -0.43       0.32
      8.23      -0.29       0.37
      8.62       0.19      -0.01
      9.26       0.08      -0.07
      8.50       0.18      -0.17
      7.99       0.03      -0.17
      8.41       0.53       0.05
      8.44       0.23      -0.10
      8.81       0.76       0.36
      9.04       1.10       0.18
      9.42       0.70       0.57
      8.32       0.24      -0.03
      7.85       0.54       0.49
      8.11       0.03       0.39
      7.80       0.35       1.10
      7.60       0.30       0.94
      7.68       0.22       0.31
      7.32       0.48      -0.14
      8.02       0.84       0.20
      7.88       0.59      -0.08
      8.50      -0.08       0.34
      8.99       0.39       0.14
      8.76       0.12      -0.11
      7.91      -0.36      -0.10
      7.16      -0.63       0.58
      7.97      -0.13       0.52
      7.84       0.32       0.49
      7.68      -0.05       0.37
      8.33       0.24       0.08
      8.82      -0.11      -0.23
      9.19       0.43      -0.27
      9.56       0.67      -0.33
      9.79       0.69      -0.44
      8.83       0.90       0.27
      8.47      -0.30      -0.33
      8.01       0.23      -0.12
      8.62       0.49       0.41
      8.05      -0.11       0.79
      8.84      -0.46       0.40
      8.37      -0.59       0.38
      8.43      -0.21       0.84
      8.40       0.27       0.61
      7.90       0.75       0.72
      8.84       0.54       0.56
      8.63       0.59       0.17
      8.54       0.36       0.25
      8.64       0.00       0.24
      8.50      -0.05      -0.13
      8.74      -0.03       0.07
      8.27       0.05       0.54
      7.84       0.06       0.56
      8.46       0.38       0.31
      8.19       0.51       0.43
      8.28       0.73       0.32
      8.50       0.53      -0.02
      9.28       0.38       0.10
      9.50       0.04      -0.47
      9.52       0.03      -0.38
      9.04       0.03      -0.23
      8.05       0.34      -0.07
      8.66       0.42      -0.05
      8.47      -0.31      -0.58
      7.94       0.14       0.84
      8.73      -0.17       1.12
      8.88      -0.18       0.01
      8.29      -0.55       0.39
      9.47      -0.16      -0.14
      9.20       0.21       0.37
      8.75       0.69       0.49
      8.62       1.00       0.30
      9.07       1.05       0.30
      9.16       0.99       0.40
      9.05       0.52       0.58
      8.84       0.15       0.10
      9.06      -0.23      -0.16
      8.78       0.13       0.27
      8.90       0.19       0.47
      8.76       0.36       0.40
      8.29       0.26       0.36
      8.49       0.44       0.39
      8.74       0.52      -0.06
      9.88       0.48       0.16
      9.10       0.06      -0.29
      9.49       0.23      -0.13
      9.04       0.24      -0.06
      8.91       0.05      -0.08
      8.23       0.14       0.15
      8.39      -0.03      -0.04
      8.17      -0.46       0.67
      8.48      -0.35       1.05
      8.98      -0.44       0.20
      9.09      -0.36       0.05
      8.93      -0.17       0.30
      8.64      -0.15       0.51
      9.19       0.32       0.05
      9.01       0.86       0.51
      9.64      -0.02       0.13
     10.53       0.25      -0.02
      9.24      -0.46       0.59
      8.96      -0.17       0.41
      9.59      -0.58       0.08
      9.89      -0.75       0.24
      9.15      -0.35       0.43
      8.42      -0.04       0.96
      9.07      -0.17       0.35
      8.19       0.02       0.46
      9.00      -0.35       0.15
      9.57      -0.15      -0.07
      9.21      -0.17      -0.84
      9.22      -0.17      -0.01
      9.07      -0.02      -0.00
      9.10       0.03      -0.24
      8.57       0.26      -0.17
      8.23      -0.52       0.23
      8.69      -0.57       0.47
      8.69      -0.24       0.50
      9.22      -0.29       0.01
      9.19      -0.26       0.18
      9.38      -0.52       0.34
      9.29      -0.22      -0.41
      9.43      -0.63      -0.25
      9.91      -0.30       0.21
     10.28      -0.56      -0.00
      8.95      -0.96       0.27
      8.62      -1.09       0.44
      9.47      -0.59      -0.00
     10.50      -0.56      -0.08
     10.03      -0.79       0.25
      9.35      -0.61       0.38
      9.33      -0.16       0.52
      8.79       0.14       0.54
      9.06      -0.06       0.27
      9.38       0.18       0.37
      9.70      -0.31       0.13
      9.76      -0.11      -0.41
      9.31      -0.27      -0.21
      9.51       0.07      -0.12
      9.45       0.17      -0.09
      8.47       0.19      -0.12
      8.42       0.23       0.62
      8.17      -0.12       0.23
      8.76      -0.33       0.08
      9.29      -0.03       0.10
      9.21      -0.24       0.37
      9.60      -0.45       0.20
      9.60      -0.40       0.04
      9.37      -0.92       0.01
      9.52      -1.13       0.26
      9.43      -1.24       0.49
      9.48      -1.28       0.05
      9.38      -1.01       0.18
      9.35      -1.14      -0.02
      9.28      -0.83      -0.07
      9.57      -0.82       0.31
      9.17      -0.44       0.34
      9.19      -0.09       0.38
      8.78      -0.25       0.76
      9.69      -0.23      -0.10
      9.75      -0.19       0.37
      9.65       0.16       0.13
      9.56      -0.26       0.03
      9.72      -0.18       0.10
      9.38      -0.08      -0.06
      9.93      -0.35       0.01
      9.10      -0.10       0.01
      8.32      -0.31       0.26
      8.38      -0.07       0.46
      9.10       0.10       0.07
      9.45      -0.09      -0.01
      9.30      -0.00       0.35
      9.22       0.19       0.36
      9.47      -0.16       0.11
      9.32      -0.55       0.22
      9.84      -0.82       0.17
      9.96      -0.53       0.28
      9.94      -0.69       0.02
      9.26      -1.02       0.19
      9.64      -1.14       0.03
      9.53      -0.90      -0.23
      9.59      -0.81       0.24
      9.54      -0.88       0.23
      9.63      -0.91       0.27
      9.28      -0.53       0.62
      9.59      -0.78      -0.02
      9.84      -0.31       0.18
      9.54      -0.73       0.37
      9.75      -0.79       0.17
      9.67      -0.60       0.13
      9.92      -0.49      -0.19
     10.26      -0.19      -0.40
      9.12      -0.15      -0.10
      8.81      -0.09       0.34
      9.13      -0.18       0.44
      9.22       0.03      -0.24
      9.60       0.10       0.14
      9.34       0.05       0.09
      9.38      -0.30       0.25
      9.71      -0.40       0.38
      9.55      -0.85       0.20
      9.65      -0.81       0.29
     10.18      -0.53       0.28
      9.65      -0.70       0.05
      9.79      -0.69       0.27
     10.09      -0.49       0.02
      9.77      -0.42      -0.08
      9.57      -0.58      -0.08
      9.87      -0.69       0.28
      9.81      -0.85       0.30
      9.65      -0.52       0.40
      9.88      -1.12       0.30
      9.83      -0.74       0.20
      9.62      -0.75       0.34
      9.69      -0.57       0.07
      9.92      -0.47      -0.12
      9.93      -0.48      -0.21
     10.11      -0.65      -0.31
