# vtk DataFile Version 3.0
Low resolution, disturbed wind of YZ Slice at time = 18 seconds.
ASCII
DATASET STRUCTURED_POINTS
DIMENSIONS     1    26    12
ORIGIN    1252.00     635.00      15.00
SPACING      30.00      30.00      30.00
POINT_DATA             312
VECTORS DisYZ float
      7.50       1.31      -0.28
      5.39       0.26       0.19
      5.28       0.43       0.17
      5.70       0.58       0.10
      4.64       0.40      -0.10
      3.86       0.15       0.40
      5.82       0.49      -0.24
      5.79       0.66      -0.15
      5.02       0.37      -0.06
      4.89      -0.48       0.38
      4.52      -0.19       0.32
      5.09      -0.33      -0.09
      3.88      -0.21       0.53
      5.64       0.69      -0.08
      5.55       0.59       0.59
      5.69       1.40       0.08
      5.31       0.92      -0.04
      5.25       0.46      -0.12
      5.69       0.84      -0.47
      4.60       0.28       0.50
      4.99      -0.20       0.44
      4.85       0.39      -0.03
      5.50       0.41       0.01
      6.84      -0.95      -0.11
      6.74      -0.70      -0.21
      5.68      -1.06       0.17
      9.53       0.56      -0.59
      7.75      -0.14      -0.10
      8.00       0.26      -0.35
      6.78       0.20       0.22
      5.36       0.29       0.34
      5.45       0.08       0.58
      7.10       0.07       0.07
      6.74       0.19       0.07
      7.10      -0.79      -0.20
      6.15      -0.77       0.05
      5.32      -0.18       0.29
      7.17      -0.41      -0.16
      7.17      -0.36      -0.38
      6.44      -0.15       0.32
      7.35       0.46      -0.39
      7.01       0.99      -0.15
      5.71       0.22      -0.27
      5.84      -0.18       0.29
      7.04      -0.76      -0.31
      6.78      -0.69       0.56
      6.57      -0.29       0.43
      7.50      -0.83      -0.11
      7.34      -1.33       0.22
      7.40      -0.25       0.23
      7.39      -0.27       0.37
      7.72      -0.67      -0.32
      8.92       1.52      -0.04
      9.06       0.68      -0.43
      8.51       0.66      -0.42
      7.53       0.54      -0.20
      7.27       0.44       0.43
      6.63       0.61       0.35
      7.39       0.38      -0.01
      7.21       0.13      -0.09
      7.61      -0.26       0.12
      7.99      -0.23       0.19
      7.36      -0.26       0.05
      7.51      -0.33       0.11
      7.47      -0.30      -0.21
      7.45      -0.53       0.26
      7.45       0.00      -0.11
      6.47      -0.45      -0.23
      6.35      -0.40       0.91
      6.78       0.01      -0.03
      7.23      -0.64       0.77
      7.26      -1.20       0.52
      7.58      -0.70       0.34
      8.41       0.21      -0.08
      7.97      -0.34      -0.33
      7.67      -0.58      -0.05
      8.34      -0.30       0.05
      8.45      -0.37      -0.16
      8.94       1.14       0.04
      9.46       1.10      -0.16
      8.27       0.38       0.10
      7.37      -0.18      -0.05
      7.37       0.05      -0.12
      7.37       0.38       0.49
      7.57       0.35       0.60
      7.55       0.28       0.35
      7.42       0.21       0.43
      7.65      -0.01       0.20
      7.97       0.02       0.04
      7.77       0.41       0.10
      8.03       0.25       0.21
      7.50      -0.12       0.16
      8.44       0.03      -0.23
      7.27       0.26       0.71
      6.99       0.16       0.18
      7.40      -0.42       0.15
      7.70      -0.41       0.40
      8.58      -0.32       0.43
      8.82       0.08      -0.10
      9.33       0.05      -0.15
      8.43       0.18      -0.10
      7.97      -0.01      -0.36
      8.21       0.42      -0.05
      8.25       0.15      -0.06
      9.14       0.76       0.36
      9.49       0.89       0.12
      9.06       0.32       0.70
      8.35       0.52       0.02
      7.88       0.23       0.64
      8.26      -0.32       0.00
      7.79       0.07       0.62
      7.50       0.03       0.96
      7.65       0.30       0.20
      6.89       0.37       0.10
      7.87       0.72       0.28
      7.89       0.45       0.10
      8.34       0.01       0.30
      8.95       0.36       0.07
      8.67       0.29      -0.12
      8.01      -0.35       0.01
      7.51      -0.31       0.44
      8.03       0.12       0.18
      7.88       0.12       0.27
      7.48       0.18       0.24
      8.24       0.26       0.07
      8.86      -0.13      -0.33
      9.08       0.38      -0.28
      9.39       0.60      -0.47
      9.37       0.59      -0.67
      8.68       0.78       0.32
      8.39      -0.31      -0.13
      8.19       0.26      -0.05
      8.26       0.34       0.53
      8.29      -0.11       1.06
      8.91      -0.64       0.23
      7.89      -0.57       0.17
      8.14      -0.84       0.49
      8.71       0.22       0.43
      7.96       0.64       0.38
      8.14       0.58       0.49
      8.26       0.59       0.26
      8.33       0.29       0.29
      8.59      -0.00       0.33
      8.53       0.04      -0.14
      8.70      -0.13       0.10
      8.45      -0.10       0.66
      8.23       0.16       0.28
      8.60       0.46       0.16
      8.14       0.47       0.30
      8.50       0.78       0.24
      8.30       0.44       0.22
      9.54       0.27       0.02
      9.17       0.01      -0.43
      9.19       0.09      -0.37
      8.95       0.13      -0.24
      8.04       0.43      -0.03
      8.66       0.31       0.04
      8.49      -0.51      -0.55
      7.85       0.19       0.98
      8.48       0.00       1.08
      8.91      -0.06       0.17
      8.67      -0.54       0.24
      9.11      -0.11       0.06
      9.07       0.27       0.45
      7.80       0.81       0.85
      8.72       0.79       0.25
      9.44       0.68       0.06
      9.79       0.42       0.11
      9.70       0.44       0.22
      8.91       0.07       0.29
      9.14      -0.21      -0.13
      8.87      -0.09       0.26
      8.82       0.14       0.39
      8.35       0.21       0.61
      8.44       0.25       0.24
      8.35       0.06       0.51
      8.83       0.45       0.06
      9.89       0.17       0.02
      9.15      -0.06      -0.41
      9.33       0.16      -0.11
      8.95       0.24      -0.07
      8.89       0.07      -0.10
      8.26       0.25       0.18
      8.40       0.02      -0.01
      8.20      -0.41       0.61
      8.59      -0.40       0.82
      8.96      -0.48       0.27
      9.08      -0.49       0.03
      8.92      -0.27       0.29
      8.81      -0.31       0.43
      9.25       0.15      -0.13
      9.14       0.50       0.37
      9.55      -0.08       0.14
     10.39       0.02      -0.02
      9.19      -0.38       0.52
      8.96      -0.30       0.31
      9.33      -0.55       0.11
     10.18      -0.68       0.19
      9.45      -0.50       0.26
      8.42      -0.19       0.82
      9.15      -0.05       0.30
      8.02      -0.02       0.36
      9.14      -0.39       0.19
      9.44      -0.08      -0.30
      9.28      -0.09      -0.70
      9.14      -0.13      -0.01
      9.07      -0.13       0.01
      9.11      -0.11      -0.26
      8.65       0.35      -0.16
      8.09      -0.10       0.50
      8.88      -1.04       0.04
      8.74      -0.29       0.58
      9.13      -0.33       0.04
      9.15      -0.30       0.13
      9.68      -0.56       0.25
      9.23      -0.30      -0.25
      9.54      -0.75      -0.35
      9.90      -0.52       0.02
     10.29      -0.62       0.20
      9.07      -0.87       0.29
      8.57      -1.07       0.36
      9.18      -0.87       0.17
      9.80      -0.69       0.19
      9.99      -0.62       0.35
      9.19      -0.52       0.47
      9.24      -0.15       0.56
      8.53       0.05       0.55
      8.97      -0.02       0.29
      9.26       0.03       0.40
      9.50      -0.36       0.02
      9.60      -0.25      -0.48
      9.25      -0.35      -0.15
      9.42      -0.13      -0.12
      9.38      -0.00      -0.25
      8.46       0.17      -0.16
      8.49       0.02       0.42
      8.28      -0.09       0.51
      8.80      -0.39      -0.09
      9.29      -0.13       0.01
      9.12      -0.30       0.30
      9.63      -0.42       0.23
      9.67      -0.37      -0.10
      9.51      -0.63       0.12
      9.25      -1.54      -0.09
      9.80      -1.36       0.69
      9.94      -1.22       0.33
      9.05      -1.02       0.38
      9.37      -1.12      -0.44
      9.58      -0.95       0.53
      9.25      -0.79       0.36
      9.25      -0.54       0.26
      9.28      -0.19       0.29
      8.91      -0.30       0.80
      9.81      -0.33       0.01
      9.83      -0.06       0.36
      9.70       0.17       0.26
      9.39      -0.36       0.09
      9.52      -0.21       0.10
      9.44      -0.15      -0.10
      9.97      -0.45      -0.04
      9.24      -0.10       0.02
      8.38      -0.27       0.29
      8.68      -0.18       0.38
      9.12      -0.06       0.01
      9.36      -0.10      -0.05
      9.40       0.03       0.30
      9.25       0.12       0.25
      9.50      -0.20       0.09
      9.28      -0.62       0.21
      9.76      -1.10       0.36
      9.51      -0.84       0.34
     10.26      -0.53      -0.08
      9.70      -1.05       0.14
      9.46      -1.16      -0.16
      9.67      -0.96      -0.05
      9.53      -0.90       0.16
      9.85      -0.78       0.01
      9.39      -0.84       0.41
      9.34      -0.67       0.56
      9.38      -0.63      -0.09
      9.78      -0.68       0.21
      9.45      -0.90       0.21
      9.65      -0.91       0.31
      9.54      -0.66       0.20
      9.78      -0.63      -0.26
     10.24      -0.60      -0.36
      9.08      -0.23      -0.05
      8.86      -0.22       0.33
      9.15      -0.37       0.38
      9.24      -0.00      -0.30
      9.45       0.06       0.12
      9.42       0.10       0.12
      9.32      -0.32       0.25
      9.82      -0.42       0.30
      9.42      -0.68       0.37
      9.91      -1.08       0.20
      9.80      -0.82       0.19
      9.57      -0.67       0.13
      9.64      -0.81       0.25
      9.97      -0.59      -0.00
      9.85      -0.54      -0.01
      9.42      -0.60      -0.06
      9.83      -0.79       0.06
      9.87      -0.87       0.30
      9.56      -0.68       0.38
      9.96      -1.00       0.33
      9.72      -1.01       0.18
      9.57      -0.94       0.20
      9.72      -0.63       0.03
      9.88      -0.63       0.06
      9.84      -0.76      -0.10
     10.17      -0.83      -0.33
