# vtk DataFile Version 3.0
Low resolution, disturbed wind of XY Slice at time = 3 seconds.
ASCII
DATASET STRUCTURED_POINTS
DIMENSIONS    47    26     1
ORIGIN     635.00     635.00      85.00
SPACING      30.00      30.00      30.00
POINT_DATA            1222
VECTORS DisXY float
      8.48       0.61       0.66
      9.21       0.99       0.75
      8.58       0.68       0.27
      8.16       0.32       0.53
      8.33       0.61       0.86
      7.87       0.42       1.10
      8.12       0.05       0.69
      8.54       0.05       0.41
      8.91       0.20      -0.18
      9.28       0.34      -0.33
      9.02       0.06      -0.05
      9.13       0.05       0.06
      8.93      -0.20      -0.10
      8.53      -0.16      -0.37
      9.04       0.57      -0.28
      9.35       0.61      -0.47
      9.43       1.46      -0.18
      9.22       0.65      -0.18
      8.82       0.52       0.27
      8.40       0.30      -0.24
      8.31       0.66      -0.44
      8.27      -0.04      -0.16
      8.19      -0.07       0.18
      8.54      -0.26      -0.03
      8.77      -0.25       0.36
      8.35       0.32      -0.25
      7.88       0.54       0.55
      7.35       0.31       0.37
      7.91       0.20      -0.49
      7.83       0.31       0.44
      6.80      -0.65       0.46
      7.10      -0.56       0.47
      6.41      -0.51       0.49
      6.79       0.16       0.81
      6.83       0.45       0.45
      6.73       0.66       0.11
      7.03       0.03       0.23
      7.51       0.69       0.49
      6.92      -0.05       0.65
      6.66      -0.05       0.43
      7.08       0.55       0.74
      7.42       0.54      -0.11
      7.70       0.98       0.28
      7.41       0.62       0.27
      7.56       0.14      -0.14
      7.80      -0.08      -0.24
      7.87       0.44       0.65
      8.46       0.74       0.51
      8.09       0.47       0.21
      8.02       0.39       0.23
      7.95       0.09       0.22
      7.93       0.25       0.23
      7.91       0.29       0.07
      7.84       0.20      -0.24
      8.03       0.07      -0.09
      8.54       0.27       0.14
      8.32       0.32      -0.15
      8.24       0.45       0.36
      7.74       0.32       0.62
      8.31      -0.15       0.08
      8.92      -0.05      -0.33
      8.97       0.50      -0.19
      8.77       0.62      -0.43
      8.95       0.76      -0.29
      8.73       0.80       0.07
      8.82       0.45      -0.05
      8.45       0.51      -0.20
      8.41       0.67      -0.34
      8.57       0.53      -0.03
      8.27       0.15       0.20
      8.10      -0.19       0.40
      8.25      -0.07       0.17
      7.98       0.16      -0.13
      8.27       1.02      -0.12
      8.56       0.32      -0.05
      8.33       0.17       0.03
      8.39       0.98       0.03
      7.87       0.22      -0.13
      7.10      -0.10       0.82
      6.78      -0.48       0.83
      7.15      -0.48      -0.33
      6.98       0.01      -0.35
      7.29      -0.28       0.02
      7.78       0.41      -0.05
      7.76       0.22       0.40
      7.50      -0.36       0.21
      6.86       0.11       0.96
      7.31       0.05       0.93
      7.39       0.91      -0.25
      7.68       0.69      -0.15
      7.75       0.71       0.10
      7.86       0.17      -0.20
      7.75       0.22      -0.11
      6.97       0.19       0.08
      7.61       0.50       0.40
      7.27       0.24       0.01
      7.03       0.09       0.07
      7.25      -0.22       0.29
      7.21      -0.22       0.18
      7.10      -0.19       0.21
      7.48      -0.00       0.21
      7.85       0.41       0.08
      8.60       0.34       0.02
      8.19       0.35       0.33
      7.80       0.06       0.03
      8.16       0.04      -0.13
      8.73       0.21      -0.24
      7.81       0.22       0.12
      7.52      -0.20       0.10
      8.07       0.37       0.07
      8.15       0.52      -0.30
      8.51       0.41      -0.06
      8.08       0.65      -0.16
      8.78       0.69      -0.09
      8.87       0.23       0.34
      9.02       0.36       0.86
      8.44       0.27       0.34
      7.55       0.03      -0.00
      7.52      -0.21      -0.11
      7.18       0.37       0.19
      7.33       0.32       0.73
      7.66       0.53      -0.17
      6.99       0.50       0.22
      7.18       0.53       0.70
      7.72       0.44      -0.07
      7.25       0.02       0.15
      6.95      -0.43       0.20
      6.85      -0.66       0.25
      7.04      -0.44       0.40
      7.72      -0.34       0.11
      7.97      -0.13      -0.58
      8.88      -0.22      -0.80
      7.75       0.19      -0.19
      7.88       0.48       0.13
      7.97       0.07      -0.15
      7.56       0.51      -0.31
      7.46       0.71       0.45
      8.03       0.63       0.12
      7.35       0.56       0.26
      6.64       0.61       0.81
      6.68       0.17       0.78
      7.24       0.10       0.58
      7.15       0.27      -0.38
      6.89      -0.26       0.57
      7.00      -0.38       0.43
      7.23      -0.10       0.10
      7.56       0.16       0.38
      7.99       0.08      -0.22
      7.81       0.25      -0.08
      7.41       0.56       0.02
      7.77       0.02      -0.51
      7.85       0.13      -0.38
      7.33      -0.20       0.31
      7.39      -0.08      -0.01
      7.71       0.12       0.51
      6.96       0.06       0.08
      7.24       0.28       0.51
      7.41       0.01       0.44
      7.56       0.32      -0.32
      7.56       0.41       0.28
      7.23       0.42       1.07
      6.83       0.61       0.75
      7.06       0.48       0.27
      7.41       0.18       0.07
      7.95       0.20      -0.03
      7.93       0.06       0.17
      7.69       0.37      -0.32
      7.34       0.70      -0.16
      6.97       0.65       0.32
      7.41       1.07       0.65
      7.25       0.09       0.20
      7.09       0.30       0.69
      7.58       0.11       0.58
      7.69       0.26      -0.15
      7.45      -0.30       0.56
      7.22      -0.56       0.47
      7.57      -0.27      -0.25
      7.91      -0.04      -0.65
      8.27      -0.37      -0.26
      8.29       0.13      -0.28
      8.00       1.07       0.12
      8.38       0.48      -0.31
      8.03       0.50       0.42
      7.07      -0.01      -0.46
      6.52       0.40       0.83
      6.51       0.48       1.19
      6.69       0.46       0.87
      7.23       0.36       0.24
      6.77       0.38       0.86
      7.31       0.22      -0.30
      7.53       0.30      -0.30
      6.56      -0.38       0.01
      6.21       0.06       0.41
      6.64       0.15       0.24
      6.95       0.13       0.58
      7.22       0.44       0.35
      7.04       0.30      -0.09
      7.09       0.41       0.08
      6.02       0.15       0.49
      6.05       0.04       0.27
      6.30      -0.25       0.50
      6.78      -0.54       0.60
      7.11      -0.24      -0.15
      7.03       0.22      -0.19
      7.51       0.37       0.56
      7.30       0.51       0.38
      7.57       0.38       0.21
      7.24       0.73       0.75
      7.11       0.70       0.56
      7.31       0.47      -0.29
      6.98       0.51       0.07
      7.60       0.13      -0.12
      7.50       0.06      -0.19
      7.34       0.27       0.24
      7.37       1.02       0.24
      7.70       1.01       0.12
      7.57       1.07       0.26
      7.82       0.07       0.02
      7.83       0.55       0.05
      8.55      -0.11       0.00
      8.02      -0.00      -0.57
      8.38      -0.07       0.17
      7.20      -0.09       0.40
      6.73       0.14       0.93
      7.28       0.19       0.50
      7.12      -0.30       0.06
      7.04      -0.10       0.20
      7.16       0.52      -0.34
      7.01       0.83       0.39
      6.85       0.40       0.67
      6.53       0.63       0.48
      6.61       0.72       0.20
      7.59       0.15       0.06
      7.52      -0.28       0.24
      7.43       0.14       0.60
      7.31       0.47       0.07
      6.80       0.56       0.05
      7.17       0.34       0.07
      7.53      -0.17      -0.49
      7.47       0.32      -0.30
      8.04       0.08      -0.36
      7.49       0.01      -0.32
      6.72       0.26       0.05
      6.49       0.39       0.46
      6.40       0.06       0.60
      6.63      -0.01       0.28
      6.93       0.08       0.23
      7.32       0.03       0.23
      6.99      -0.28       0.32
      6.55      -0.20       0.54
      6.74       0.04       0.40
      6.86       0.47       0.16
      6.89       0.78       0.47
      6.64       0.79       0.71
      6.57       0.76       0.49
      6.80       0.48       0.38
      7.09       0.15       0.45
      7.50      -0.01       0.05
      7.72      -0.16      -0.06
      7.42      -0.20      -0.14
      7.70      -0.07      -0.17
      7.51       0.60      -0.02
      7.67       0.93      -0.01
      7.91       0.59      -0.41
      8.00       0.42       0.01
      7.95      -0.29      -0.25
      7.13      -0.08      -0.08
      6.95       0.05      -0.02
      7.32       0.17      -0.06
      7.17       0.22       0.06
      7.63       0.01      -0.33
      7.63      -0.02      -0.32
      6.97       0.23      -0.01
      6.77       0.36       0.40
      6.67       0.53       0.54
      6.74       0.92       0.45
      6.76       0.41       0.41
      7.06       0.37       0.66
      7.42       0.03       0.09
      7.62      -0.18      -0.12
      7.76       0.14       0.19
      8.22       0.02      -0.12
      7.33       0.87      -0.09
      7.10       0.23       0.28
      7.52      -0.33       0.55
      7.73      -0.20       0.22
      7.80      -0.47       0.10
      8.14      -0.24       0.01
      8.19       0.47      -0.25
      8.24       0.65      -0.78
      8.22       0.08      -1.01
      8.07       0.18      -0.42
      7.86      -0.06       0.03
      7.84      -0.40       0.03
      7.47      -0.04       0.06
      7.36       0.21      -0.13
      7.91       0.10      -0.16
      8.06       0.07       0.14
      7.93       0.27       0.13
      7.38       0.21       0.20
      7.28       0.75       0.39
      7.29       0.34       0.17
      7.35       0.19       0.22
      7.72       0.54      -0.13
      8.00       0.28      -0.41
      8.14      -0.26      -0.52
      8.47      -0.27      -0.54
      7.93       0.22      -0.42
      7.74       0.50      -0.25
      7.65       0.82      -0.43
      7.87       0.19      -0.05
      8.15       0.61       0.23
      7.19       0.02       0.09
      7.37      -0.07       0.04
      7.13       0.21      -0.00
      7.18       0.24      -0.15
      7.27      -0.08      -0.14
      7.29       0.01       0.37
      7.41       0.17       0.09
      7.27       0.36       0.17
      7.05       0.54       0.06
      7.18       0.41      -0.12
      7.06       0.57       0.08
      7.24       0.32       0.29
      7.52       0.48       0.03
      7.79       0.10      -0.09
      7.62      -0.14       0.04
      7.98      -0.09      -0.18
      8.25      -0.12      -0.22
      7.10       0.85      -0.03
      7.27      -0.13       0.54
      7.45      -0.87       0.26
      7.72      -0.65       0.01
      7.82      -0.22      -0.03
      8.02       0.08      -0.13
      8.60       0.31      -0.10
      8.50       0.22      -0.02
      8.66      -0.32      -0.54
      8.40       0.36      -0.23
      8.87       0.21      -0.59
      8.03      -0.12      -0.06
      7.98      -0.19      -0.15
      7.25       0.23       0.17
      7.21      -0.29       0.46
      7.33       0.21       0.35
      7.53       0.56       0.23
      7.24      -0.01       0.03
      7.24      -0.41       0.48
      7.33      -0.07       0.48
      7.52       0.10       0.24
      7.93       0.29      -0.13
      8.09       0.05       0.04
      7.59      -0.23      -0.21
      7.20      -0.25       0.42
      7.31       0.41      -0.13
      7.39       0.30      -0.39
      7.62       0.48       0.12
      7.65       0.31       0.09
      8.01       0.32       0.19
      7.95      -0.08      -0.14
      8.16       0.19      -0.32
      8.40       0.01      -0.23
      7.40       0.10      -0.00
      7.56      -0.27      -0.14
      7.63      -0.28      -0.41
      7.43       0.18      -0.02
      7.23       0.27       0.00
      7.38       0.52      -0.11
      7.57       0.16      -0.32
      7.90       0.03      -0.02
      7.90       0.08      -0.02
      8.17       0.12      -0.27
      8.19      -0.07      -0.42
      8.19      -0.05      -0.26
      7.92       0.10      -0.18
      7.69      -0.33      -0.46
      8.15       0.00      -0.03
      8.09      -0.66      -0.11
      8.36      -0.78      -0.64
      7.56      -0.17      -0.10
      7.60      -0.08       0.17
      8.04       0.16       0.07
      8.23       0.36      -0.01
      8.33       0.08      -0.37
      7.68      -0.09      -0.17
      8.55       0.32      -0.05
      8.69       0.11      -0.21
      7.86       0.14      -0.12
      8.16       0.15       0.21
      7.63       0.61      -0.01
      7.34       0.08       0.45
      7.09       0.02       0.47
      7.06       0.36       0.49
      7.58      -0.37       0.17
      7.58      -0.50      -0.03
      7.40      -0.46      -0.21
      7.22      -0.70      -0.14
      7.56      -0.13       0.01
      7.92      -0.01       0.22
      7.68       0.17       0.10
      7.80       0.19      -0.23
      7.55      -0.09      -0.30
      7.71      -0.01      -0.50
      7.36       0.04       0.30
      7.50      -0.10       0.04
      7.67      -0.08       0.06
      7.43      -0.39       0.03
      7.91      -0.23      -0.36
      7.77       0.17      -0.19
      8.09       0.26      -0.15
      6.99      -0.71      -0.04
      7.29      -0.48       0.24
      7.40       0.13       0.15
      7.62       0.38      -0.09
      7.41      -0.08       0.19
      7.15      -0.18       0.00
      7.61       0.19      -0.30
      7.73       0.05      -0.29
      8.06      -0.05      -0.43
      7.80      -0.08      -0.41
      7.68      -0.10      -0.32
      7.91      -0.02      -0.42
      7.73       0.25      -0.55
      8.82       0.02       0.11
      8.66      -0.33      -0.13
      7.42      -0.30       0.36
      7.42      -0.19       0.30
      7.85       0.04       0.44
      7.94      -0.06      -0.06
      7.78      -0.11       0.31
      7.84       0.65       0.11
      7.79       0.05      -0.03
      7.82      -0.10       0.08
      7.91       0.65       0.31
      7.83       0.57       0.18
      8.01       0.26       0.24
      7.57       0.70       0.13
      7.09       0.24       0.18
      7.37      -0.15      -0.12
      7.64       0.26       0.05
      7.68      -0.40      -0.04
      7.69      -0.35      -0.04
      7.33      -0.79       0.09
      7.20      -0.60      -0.25
      7.29      -0.71      -0.20
      7.39      -0.31       0.16
      7.50      -0.13       0.53
      7.53       0.18      -0.31
      7.78       0.48       0.00
      7.22       0.18      -0.20
      6.96      -0.13       0.11
      6.86      -0.10       0.53
      7.37      -0.14       0.12
      7.54      -0.28      -0.38
      7.83      -0.18      -0.22
      7.76       0.07      -0.02
      8.04       0.42      -0.27
      7.02      -0.07       0.14
      7.20       0.06       0.21
      7.20       0.19       0.27
      7.45       0.07      -0.22
      7.80      -0.11      -0.18
      7.44      -0.25       0.03
      7.11      -0.17       0.25
      7.00      -0.09       0.25
      7.38      -0.36      -0.19
      8.33      -0.17      -0.76
      8.41      -0.11      -0.54
      8.14      -0.14      -0.22
      8.11      -0.12      -0.61
      8.37       0.17      -0.26
      8.48       0.21      -0.17
      7.94      -0.02      -0.45
      8.25       0.44      -0.11
      8.32       0.23       0.00
      7.87      -0.48       0.14
      8.17      -0.27       0.07
      7.92      -0.01       0.00
      7.59       0.77      -0.24
      7.95       0.24       0.27
      7.27       0.48       0.20
      7.70       0.62      -0.30
      4.86       0.71       0.43
      3.99       0.58       0.49
      7.49       0.21       0.57
      7.24       0.30       0.31
      7.43       0.06       0.37
      7.46      -0.11      -0.10
      7.43      -0.28       0.15
      8.08      -0.49       0.03
      7.80      -0.25      -0.54
      7.20      -0.26       0.08
      7.12      -0.20       0.58
      7.30       0.48       0.67
      7.30       0.41       0.29
      7.19       0.22      -0.42
      7.14       0.04      -0.02
      6.97       0.25       0.38
      6.84      -0.15       0.52
      6.72      -0.80       0.09
      6.85      -0.35      -0.49
      7.19       0.15      -0.22
      7.39       0.24      -0.29
      7.55       0.19      -0.54
      7.53       0.17      -0.32
      7.01       0.58       0.41
      7.38       0.14       0.11
      7.54       0.10      -0.31
      7.64       0.30      -0.01
      7.75       0.19      -0.02
      7.90       0.34       0.20
      7.44      -0.05       0.49
      7.78      -0.61      -0.23
      7.64      -0.13      -0.31
      7.99      -0.15      -0.63
      8.20      -0.03      -0.56
      8.07       0.05      -0.59
      7.59      -0.21      -0.25
      7.72      -0.08      -0.37
      6.95       0.47      -0.03
      7.04      -0.14       0.54
      7.36       0.07       0.15
      7.12      -0.43      -0.06
      7.11      -0.05       0.28
      7.10       0.12       0.19
      7.03       0.43       0.12
      7.28       0.31       0.24
      7.08       0.68       0.42
      7.06       0.86      -0.03
      4.96       0.47       0.56
      3.46       0.31       1.00
      7.56       0.02       0.49
      7.52       0.08       0.52
      7.48       0.39       0.16
      7.42      -0.22      -0.04
      7.43      -0.32       0.12
      7.66      -0.15      -0.16
      8.11       0.02      -0.65
      7.86      -0.03      -0.03
      7.52       0.06       0.43
      6.68       0.18       0.24
      6.91       0.10       0.05
      7.17       0.21       0.03
      7.12       0.06       0.11
      7.35       0.34       0.29
      7.55       0.07      -0.03
      6.92      -0.24       0.10
      6.12      -0.25       0.34
      6.18      -0.54       0.15
      6.40      -0.60      -0.04
      7.09      -0.50       0.01
      6.71       0.36      -0.18
      6.62       0.37       0.14
      7.24      -0.03      -0.05
      6.87       0.08       0.01
      7.02       0.06      -0.17
      6.78       0.02       0.80
      7.53      -0.11       0.40
      8.04      -0.43      -0.27
      7.32      -0.44      -0.29
      7.68      -0.01      -0.62
      8.17      -0.45      -0.70
      7.10      -0.23      -0.15
      7.01      -0.23      -0.16
      6.63       0.21       0.20
      6.38       0.27       0.10
      7.06      -0.19       0.15
      7.27      -0.38       0.32
      7.09      -0.30       0.19
      6.74      -0.37       0.27
      6.82      -0.03       0.33
      6.89       0.14       0.51
      6.92       0.33       0.57
      7.16       0.39       0.28
      7.50       0.59       0.16
      7.42       0.31      -0.05
      5.28      -0.04       0.41
      4.97       0.09       0.60
      7.96       0.51       0.16
      7.80      -0.16       0.28
      8.08      -0.44       0.15
      7.95       0.11      -0.24
      7.62      -0.50      -0.04
      7.59      -0.47      -0.17
      7.54       0.18      -0.21
      6.81       0.27       0.34
      6.77       0.45       0.36
      7.40      -0.08       0.28
      7.52      -0.11      -0.17
      7.79      -0.34       0.14
      7.92       0.28      -0.21
      7.38       0.36       0.16
      6.69       0.21      -0.13
      6.47       0.11       0.55
      6.86      -0.04       0.47
      7.30      -0.35      -0.08
      7.52      -0.24      -0.75
      7.35      -0.72      -0.45
      7.24       0.16       0.34
      7.81       0.33      -0.48
      7.24       0.60       0.04
      7.32       0.65      -0.12
      7.84       0.15      -0.30
      7.93      -0.14      -0.65
      8.33      -0.09      -0.69
      7.07      -0.09       0.29
      6.85       0.05       0.07
      7.10      -0.42      -0.26
      6.53      -0.17      -0.23
      6.33      -0.07       0.06
      6.70       0.17      -0.18
      6.51       0.32       0.06
      6.72      -0.35       0.56
      6.64      -0.71       0.49
      6.63      -0.54       0.21
      7.00      -0.58       0.02
      7.23      -0.63       0.01
      7.48      -0.43      -0.06
      7.55      -0.27       0.08
      7.15       0.32       0.12
      7.26       0.30       0.16
      7.56      -0.04       0.50
      7.86       0.42       0.24
      5.36       0.19       0.27
      4.33       0.15       0.25
      8.04       0.66      -0.20
      8.20       0.48       0.10
      7.64      -0.45       0.13
      7.26      -0.57       0.05
      7.55      -0.28       0.41
      7.20      -0.06       0.45
      7.40       0.17       0.04
      7.34       0.32       0.20
      7.56      -0.12      -0.17
      7.98      -0.17      -0.28
      6.07       0.26       0.65
      6.50      -0.30       0.67
      6.79      -0.30       0.76
      6.66       0.45       0.02
      6.88       0.25       0.52
      7.18       0.08      -0.12
      7.34      -0.14      -0.34
      6.33      -0.80       0.00
      7.04      -1.14       0.31
      6.47      -0.44       0.02
      6.43      -0.00       1.04
      6.80      -0.04       0.17
      7.14       0.37      -0.48
      7.46       0.06      -0.54
      7.52       0.05      -0.38
      7.60       0.15      -0.68
      6.91      -0.19       0.35
      7.49      -0.20       0.48
      7.27       0.60       0.71
      6.70       0.35      -0.05
      6.85       0.36      -0.34
      6.61       0.24       0.02
      6.79       0.32       0.57
      6.90      -0.20      -0.20
      7.12      -0.69      -0.51
      7.56      -0.70      -0.65
      7.20      -0.50      -0.38
      7.08      -0.50       0.02
      7.35      -0.39       0.06
      7.37      -0.15      -0.14
      7.25       0.03       0.01
      7.45       0.08       0.08
      7.93       0.15       0.15
      8.21       0.03       0.09
      7.89       0.16       0.14
      5.17       0.17      -0.04
      3.69      -0.09      -0.22
      8.49       0.17      -0.49
      8.01       0.01      -0.64
      8.22       0.01      -0.31
      7.55      -0.02      -0.26
      7.43       0.03       0.09
      7.48       0.34       0.46
      8.04       0.25      -0.05
      8.19       0.03      -0.33
      8.50      -0.38      -0.48
      7.67      -0.07      -0.08
      7.63      -0.03       0.11
      6.61       0.18       0.92
      6.55       0.15       0.36
      6.96       0.24       0.49
      7.35       0.56       0.17
      8.01       0.34      -0.83
      8.35      -0.18      -1.11
      8.04      -0.17      -0.83
      7.70       0.18       0.02
      6.96       0.01      -0.34
      6.33      -0.28      -0.05
      6.69       0.36       0.33
      7.04       0.56       0.26
      7.37       0.06       0.16
      6.77       0.11       0.47
      6.79       0.23       0.37
      7.04      -0.03       0.18
      6.89      -0.31       0.23
      7.20       0.18       0.33
      7.42       0.57      -0.01
      6.93       0.56      -0.42
      6.90       0.50      -0.53
      7.13       0.63      -0.11
      6.20      -0.33       0.98
      7.36      -1.04      -0.40
      6.63      -0.25       0.13
      6.48       0.05      -0.15
      7.25      -0.25       0.14
      7.24      -0.52       0.15
      7.01      -0.09       0.29
      7.42      -0.30       0.20
      7.58      -0.48       0.28
      7.50      -0.09       0.12
      7.65      -0.02      -0.30
      7.69      -0.26      -0.67
      7.73       0.09      -0.71
      7.27      -0.33       0.10
      7.68      -0.29      -0.20
      6.80      -0.32      -0.00
      6.52       0.17       0.63
      6.62      -0.17       0.28
      7.04      -0.29      -0.22
      7.50      -0.25      -0.08
      7.68      -0.18      -0.51
      7.26       0.00      -0.13
      7.62       0.71      -0.07
      7.22       0.42       0.22
      7.50       0.18       0.41
      7.44       0.08       0.30
      7.48      -0.46       0.06
      7.90      -0.12      -0.16
      7.89      -0.20       0.31
      7.93      -0.34       0.21
      7.90      -0.28      -0.48
      8.13      -0.03      -0.77
      7.89       0.63       0.16
      7.34       0.31      -0.07
      7.49       0.10      -0.11
      8.12       0.61       0.18
      7.13       0.32      -0.02
      6.31       0.31       0.41
      6.54       0.51       0.49
      6.91       0.43       0.32
      6.70       0.04      -0.01
      6.49       0.25       0.07
      6.72      -0.05       0.31
      6.79       0.06       0.30
      7.27       0.26       0.33
      7.10       0.72      -0.02
      7.13       0.63      -0.02
      6.82      -0.37      -0.19
      7.45      -0.22      -0.59
      7.84      -0.71      -0.70
      7.94      -0.85      -0.54
      7.96      -0.51      -0.61
      7.63      -0.34       0.09
      7.56      -0.07       0.11
      7.89      -0.40       0.10
      7.75      -0.05      -0.17
      7.32      -0.52      -0.06
      7.79      -0.50      -0.31
      7.93      -0.23      -0.29
      7.41      -0.21       0.03
      7.18      -0.20       0.00
      7.26      -0.19       0.44
      6.10       0.24       0.27
      5.90      -0.21       0.36
      6.33      -0.32       0.50
      6.76      -0.42       0.45
      6.85      -0.23       0.09
      6.16       0.56       0.23
      6.51       0.68      -0.12
      7.33       0.12      -0.23
      7.64      -0.35       0.19
      7.93      -0.14       0.55
      7.84      -0.07      -0.09
      7.31      -0.45      -0.15
      6.88      -0.10       0.43
      6.71      -0.31       0.64
      7.28      -0.26       0.13
      7.25      -0.36       0.01
      7.12       0.24       0.42
      7.45       0.16       0.23
      7.95       0.02      -0.26
      8.55       0.53      -0.90
      8.18       0.38      -0.27
      7.76       0.63       0.08
      7.66       0.53      -0.19
      7.59       0.38      -0.32
      7.35       0.51      -0.20
      7.16       0.45      -0.32
      7.54       0.08      -0.25
      7.14      -0.09      -0.32
      7.02      -0.12       0.24
      7.47      -0.22       0.32
      7.46      -0.00       0.38
      7.46       0.13      -0.24
      8.05      -0.20      -0.65
      8.09       0.28      -0.77
      8.51      -0.25      -0.67
      8.40      -0.24      -0.87
      8.48      -0.52      -0.81
      8.39      -0.15      -0.49
      8.26      -0.50      -0.18
      8.61      -0.31      -0.23
      7.27       0.15       0.15
      6.80       0.25       0.39
      7.43      -0.77      -0.32
      7.36      -0.76       0.06
      7.33      -0.06       0.26
      6.99      -0.36      -0.23
      7.10       0.23       0.49
      7.00       0.27       0.54
      6.66       0.24      -0.11
      6.91      -0.33      -0.23
      6.99      -0.26       0.38
      6.86      -0.52       0.69
      7.26       0.09       0.52
      7.40      -0.09       1.23
      7.90      -0.62       0.22
      8.27      -0.56      -0.11
      8.15      -0.33       0.03
      8.39      -0.25       0.06
      8.57      -0.35      -0.47
      7.80      -0.06      -0.35
      7.85      -0.19      -0.11
      6.75      -0.11       0.74
      6.60       0.30       1.12
      6.94      -0.14       0.51
      7.12      -0.36       0.59
      7.54       0.04       0.22
      7.40       0.20      -0.11
      7.26       0.45      -0.04
      7.47       0.22       0.25
      7.50       0.28       0.28
      7.17       0.40       0.02
      7.39       0.60      -0.27
      7.79       0.39      -0.43
      7.74       0.02      -0.33
      7.51       0.13      -0.04
      8.02      -0.01      -0.51
      7.87      -0.19      -0.42
      7.75      -0.49      -0.08
      8.05      -0.21      -0.12
      7.40      -0.21       0.16
      7.93       0.07      -0.98
      8.58      -0.12      -0.57
      7.62      -0.42       0.09
      7.86      -0.31      -0.46
      8.35      -0.24      -0.63
      8.19      -0.38      -0.70
      8.30      -0.20      -0.44
      8.68       0.06       0.05
      8.48      -0.43      -0.00
      8.27      -0.31      -0.48
      7.83      -0.16      -0.19
      7.74       0.06      -0.30
      7.05      -0.39       0.53
      7.25      -0.04       0.19
      7.00       0.29       0.25
      6.59      -0.13       0.49
      6.96      -0.66       0.91
      7.63      -1.16       0.44
      7.96      -0.56       0.20
      8.18      -0.33       0.30
      7.62      -0.46      -0.25
      7.52      -0.76      -0.10
      7.86      -0.63       0.09
      8.04      -0.44      -0.47
      8.80      -0.12      -0.42
      9.01       0.06      -0.75
      8.24       0.25      -0.79
      8.17      -0.25      -0.92
      7.36       0.15      -0.22
      7.62       0.07       0.39
      7.52      -0.24       0.31
      7.25      -0.25       0.02
      7.27      -0.20       0.25
      7.30       0.05       0.42
      7.43       0.13       0.64
      7.34      -0.12       0.32
      7.51      -0.10       0.30
      7.70      -0.03      -0.06
      8.05       0.12      -0.41
      8.23       0.20      -0.34
      8.03       0.38       0.09
      7.61       0.10       0.12
      7.57       0.11      -0.12
      7.64      -0.18      -0.32
      7.80      -0.43      -0.22
      8.27      -0.42      -0.36
      7.23      -0.18       0.53
      7.47       0.17      -0.37
      7.46       0.45       0.33
      7.88      -0.21      -0.61
      8.15      -0.26      -0.57
      7.73       0.21      -0.35
      7.56      -0.02       0.03