# vtk DataFile Version 3.0
Low resolution, disturbed wind of XZ Slice at time = 51 seconds.
ASCII
DATASET STRUCTURED_POINTS
DIMENSIONS    47     1    12
ORIGIN     635.00    1000.00      15.00
SPACING      30.00      30.00      30.00
POINT_DATA             564
VECTORS DisXZ float
      4.10      -0.36       0.30
      5.02       0.67       0.41
      5.13       1.11      -0.16
      5.20      -0.35      -0.11
      5.35       0.10      -0.02
      4.58      -0.53       0.13
      5.55      -0.44      -0.37
      4.55      -0.60      -0.10
      4.23      -0.27      -0.08
      4.64       0.21      -0.09
      4.85       0.15      -0.20
      4.83      -0.56      -0.52
      4.15       0.07       0.89
      3.86       0.30       0.25
      4.40       0.70      -0.08
      3.64       0.19       0.34
      4.20       0.41       0.71
      5.60       0.19       0.53
      5.91       0.04      -0.04
      6.20      -0.24      -0.31
      6.12      -0.36      -0.04
      3.96      -0.81      -0.05
      3.13      -0.29       0.62
      3.64       0.82       1.02
      4.89      -0.61       1.32
      5.01      -1.05       0.19
      4.65      -0.49       0.35
      4.67      -0.09       0.40
      3.85       0.97       0.60
      4.98       0.94       0.56
      4.53       1.53       0.17
      4.91       0.77      -0.42
      4.13      -0.48       0.77
      4.22       0.21      -0.15
      4.27       1.12      -0.06
      4.52      -0.01      -0.64
      4.66      -0.92       0.30
      4.91      -0.02      -0.14
      4.47       0.38      -0.18
      4.61       0.11      -0.07
      4.80       0.50       1.05
      5.26      -0.02      -0.44
      5.78       1.05      -0.24
      5.66       0.44       0.45
      5.16       0.30       0.62
      5.05       0.85      -0.00
      5.30       0.69      -0.06
      5.43      -0.05       0.09
      6.10      -0.52      -0.23
      5.96      -0.71      -0.14
      5.28      -0.02       0.38
      4.83       0.04       0.33
      5.08       0.31       0.95
      6.37      -0.48       0.02
      6.11      -0.53      -0.03
      5.77      -0.36       0.02
      6.75       0.79      -0.26
      6.66       1.01      -0.65
      6.20       0.77      -0.06
      2.46       0.70       0.72
      2.41       0.46       0.32
      1.54       0.16       0.21
      2.37      -0.71       0.52
      2.26      -0.01       0.39
      3.46      -0.15       0.32
      4.06      -0.11       0.32
      4.04       0.26       0.16
      3.98       0.14      -0.02
      4.51      -0.59       0.25
      4.65      -0.75       0.80
      3.45       1.42       0.50
      5.87      -1.43       0.51
      6.15       0.37       0.50
      6.78      -0.20       1.26
      6.49      -0.80       0.64
      6.51      -1.29      -0.02
      6.34      -0.32       0.63
      6.43       0.82      -0.27
      6.98       0.23      -0.58
      6.74       1.01       0.50
      6.98       0.40      -0.51
      6.86       0.46      -0.33
      5.90      -0.42      -0.13
      6.21      -0.33       0.35
      5.79       0.67       1.25
      6.56       0.86      -0.32
      6.29       0.33       0.08
      5.92      -0.01      -0.50
      6.80       0.63      -0.17
      6.34      -0.03       0.48
      7.16       0.15       0.33
      7.10       0.39      -0.49
      6.90       0.47      -0.38
      7.20       0.77       0.03
      7.02       0.05      -0.24
      6.68      -0.46      -0.16
      6.62      -0.45       0.02
      6.10      -0.51       0.34
      6.85      -0.64       0.67
      6.36      -0.25       0.53
      7.26       0.31       0.26
      6.65      -0.34       0.04
      6.83       0.51       0.21
      6.72       0.15       0.22
      6.54       0.01       0.44
      7.04       0.31       0.19
      2.84      -0.08       0.06
      3.43       0.08       0.21
      3.48       0.12       1.02
      3.84      -0.27       0.46
      3.19      -0.08       0.46
      3.52      -0.35      -0.04
      3.82      -0.33       0.23
      3.88      -0.44       0.30
      3.83      -0.02       0.91
      3.89      -0.17       0.51
      3.80      -0.01       0.46
      4.30      -0.19       0.34
      7.37      -0.05       0.31
      7.07      -0.14       0.89
      7.42      -0.09       0.45
      7.06      -0.49       0.51
      6.97      -0.77       0.55
      7.39      -0.51       0.45
      8.11      -0.19      -0.05
      7.22       0.17      -0.04
      6.39       0.06       0.23
      6.59       0.08       0.20
      6.59      -0.24       0.03
      7.24      -0.33       0.12
      6.92      -0.12       0.07
      7.35       0.18      -0.12
      7.16       0.47      -0.26
      6.96       0.24      -0.16
      6.57       0.53       0.04
      6.87       0.35       0.03
      6.93      -0.63      -0.84
      6.38      -1.19      -0.64
      7.89      -0.19      -0.71
      6.67       0.49       0.01
      6.58       0.34       0.60
      7.33       0.03      -0.60
      7.21      -0.37       0.13
      7.79       0.02       0.49
      7.11      -0.32       0.35
      7.03      -0.99       0.30
      7.13      -1.28       0.10
      7.09       0.17       0.46
      7.42      -0.45       0.33
      7.59      -0.30       0.62
      7.51       0.18       0.19
      7.41       0.22       0.37
      7.19       0.42       0.78
      7.06       0.35       0.70
      3.55      -0.21       0.90
      3.61      -0.03       1.05
      4.14      -1.03       0.78
      4.85      -1.23       0.20
      5.03      -1.05      -0.30
      4.60      -0.41       0.69
      4.16      -0.07       0.72
      4.24      -0.01       0.61
      4.55       0.14       0.57
      4.27       0.09       0.79
      4.57       0.76       0.24
      7.50       1.20       0.07
      7.83       1.05       0.36
      7.94       0.59       0.25
      7.92       0.61       0.30
      8.15      -0.38       0.39
      7.99       0.35       0.12
      8.47      -0.14       0.11
      8.58      -0.28       0.10
      8.37      -0.16      -0.30
      7.72       0.10       0.32
      7.31       0.55       0.27
      7.53       0.17       0.34
      8.00      -0.14       0.13
      8.67      -0.59      -0.08
      7.80       0.33      -0.06
      7.87       0.83      -0.22
      7.70       0.35      -0.12
      7.25       0.53       0.19
      7.55      -1.04      -0.44
      7.74      -0.68       0.26
      7.88      -0.85      -0.06
      8.15      -0.01      -0.12
      7.94       0.08       0.09
      9.16      -0.61      -0.20
      8.69      -0.39       0.35
      9.15      -0.51       0.15
      8.99      -0.51       0.32
      8.46      -0.42      -0.15
      7.35      -1.05       0.25
      7.61      -1.56       0.57
      7.39      -1.04       0.39
      7.05       0.04       0.37
      6.92       0.34       0.32
      6.13      -0.33       0.89
      6.44      -0.04       0.34
      6.93      -0.10       0.11
      3.22       0.20       0.31
      3.14      -0.06       0.43
      3.38      -0.16       0.48
      3.65      -0.12       0.38
      3.59      -1.08       0.67
      4.01      -1.17       0.69
      3.82      -0.56       0.86
      4.44      -0.50       0.70
      4.00      -0.16       0.74
      4.61       0.06       0.62
      4.74      -0.16       0.38
      8.25      -0.19       0.03
      7.84       0.28      -0.07
      8.34       0.86       0.38
      8.17       0.71       0.38
      8.16       0.78       0.31
      8.50       0.16       0.43
      8.51      -0.08       0.27
      8.41      -0.08      -0.10
      8.12      -0.06       0.08
      8.25      -0.01       0.56
      8.42       0.42       0.17
      8.50      -0.09       0.09
      8.46      -0.19      -0.21
      8.45      -0.03      -0.32
      8.48      -0.17       0.19
      7.85       0.27       0.05
      7.68       0.00       0.39
      7.87      -0.34       0.92
      8.08      -0.82      -0.13
      8.38      -0.89       0.14
      8.14      -1.06       0.61
      8.98      -0.39      -0.02
      8.69      -0.52      -0.05
      9.15      -0.53       0.05
      9.39      -0.35       0.21
      9.66      -0.41       0.00
      8.55       0.16       0.06
      8.54       0.10       0.00
      8.93      -0.90      -0.26
      7.95      -1.38       0.66
      7.60      -1.10       0.75
      7.28      -1.01       1.14
      7.22      -0.26       1.16
      7.40       0.57       0.50
      7.72       0.66      -0.26
      7.65       0.21      -0.50
      6.62       0.39      -1.04
      6.35       0.48      -0.26
      5.90       0.01      -0.04
      6.07       0.08       0.05
      5.66      -0.15       0.18
      5.72      -0.43       0.69
      6.02      -0.30       0.54
      6.30      -0.18       0.75
      6.45       0.23       0.67
      6.75       0.08       0.18
      6.52      -0.10       0.34
      8.20      -0.83      -0.16
      8.52      -0.89       0.47
      8.12       0.15       0.18
      8.70       0.53       0.49
      8.22       0.75       0.47
      8.29       0.14       0.49
      8.62      -0.00       0.07
      8.50      -0.41       0.02
      8.47      -0.51      -0.15
      8.99      -0.12       0.03
      9.21       0.21       0.32
      8.89       0.47      -0.14
      8.88       0.24      -0.33
      8.70      -0.23       0.01
      7.94      -0.19       0.31
      8.06      -0.08       0.37
      8.31       0.35       0.41
      8.09       0.33       0.27
      7.64      -0.00       0.33
      8.11      -0.52      -0.11
      8.35      -0.74      -0.17
      8.67      -0.29       0.30
      8.51      -0.29       0.04
      9.32      -0.74       0.19
      9.11      -0.34       0.15
      8.96      -0.40       0.34
      9.14      -0.09       0.40
      9.65       0.43      -0.43
      8.15      -0.42      -0.24
      8.24      -0.84       1.07
      7.74      -1.05       0.58
      7.67      -0.35       0.97
      7.45      -0.24       1.28
      8.51       0.52       0.66
      8.52       0.42      -0.23
      8.39      -0.75      -0.83
      8.46      -0.20      -0.61
      8.37      -0.08      -0.66
      8.19      -0.08       0.10
      8.04      -0.25       0.32
      8.13       0.12       0.63
      8.04      -0.34       0.23
      8.38      -0.38       0.13
      8.60      -0.75       0.07
      8.69      -0.82       0.12
      8.77      -0.68       0.31
      8.51       0.07       0.53
      8.27       0.22       0.32
      8.70      -0.06       0.42
      8.93      -0.03       0.51
      8.89      -0.13       0.79
      9.26       0.56       0.18
      8.55       0.50       0.50
      8.94       0.60       0.68
      9.13      -0.40      -0.00
      9.11      -0.24       0.10
      9.08      -0.40       0.18
      8.89      -0.23       0.18
      8.89      -0.51      -0.07
      8.89      -0.41      -0.10
      8.74       0.21       0.33
      8.67      -0.07       0.51
      8.19      -0.16       0.51
      8.66      -0.01       0.22
      9.24       0.69       0.43
      8.45       0.42       0.63
      8.36      -0.10      -0.18
      8.61      -0.42      -0.37
      8.92      -0.58       0.10
      9.08      -0.77       0.08
      9.36      -0.26       0.27
      9.03      -0.43       0.47
      8.91      -0.33       0.35
      9.30       0.08      -0.08
      9.13      -0.07       0.02
      8.89      -0.48       0.03
      8.40      -0.72       0.74
      8.03      -0.97       0.94
      7.96      -0.73       1.41
      8.49      -1.22       1.28
      9.72      -1.14       1.31
      9.17      -1.74       0.47
      9.02      -0.93      -0.73
      8.55       0.25      -0.46
      8.69      -0.19       0.09
      9.01      -1.08      -0.03
      8.29      -0.58       0.25
      8.48      -0.66       0.22
      8.24      -0.71       0.67
      8.64      -1.22       0.50
      9.10      -1.37       0.27
      9.16      -1.17       0.37
      8.36      -1.13       0.25
      8.36      -0.83       0.36
      8.71      -0.90       0.39
      8.65      -0.90       0.61
      8.73      -1.12       0.75
      8.98      -1.39       0.42
      8.95      -0.13       0.50
      9.18       0.33       0.76
      9.57      -0.15       0.53
      9.20      -0.32       0.44
      8.98      -0.60       0.24
      8.90      -0.85       0.48
      8.78      -0.72       0.08
      8.69      -0.79      -0.28
      8.81      -0.65      -0.36
      8.69       0.04       0.16
      9.05      -0.09       0.31
      9.50      -0.22      -0.04
      9.85      -0.04      -0.34
      9.39      -0.04       0.07
      9.02       0.36       0.53
      9.26       0.36      -0.07
      9.32       0.01      -0.43
      9.02      -0.16      -0.12
      9.21      -0.27      -0.01
      8.75      -0.07       0.56
      8.77      -0.44       0.79
      8.96      -0.28       0.62
      8.90      -0.20       0.12
      8.94       0.30       0.21
      8.76      -0.20      -0.08
      8.39      -0.16       0.44
      8.42      -0.15       0.84
      8.81      -0.47       0.78
      9.01      -0.54       1.06
      9.02      -1.45       1.19
      9.56      -1.75       0.37
      9.63      -0.65       0.13
      9.06      -0.35       0.07
      8.74      -0.27      -0.16
      8.84      -0.37       0.36
      8.85      -0.50       0.48
      8.84      -0.57       0.18
      9.19      -0.69       0.13
      9.89      -1.03      -0.32
      9.47      -0.98       0.04
      8.94      -1.00       0.66
      8.88      -0.52       0.40
      8.70      -0.73       0.41
      8.64      -1.11       0.47
      9.11      -1.11       0.40
      9.01      -1.18       0.38
      8.52      -0.84       0.51
      8.52      -0.72       0.62
      8.67      -0.79       0.55
      9.00      -1.02       0.30
      9.38      -0.91       0.28
      9.36      -0.80       0.43
      8.87      -1.13       0.63
      8.73      -1.47       0.35
      9.06      -0.97      -0.41
      9.02      -0.89      -0.43
      8.88      -0.90      -0.20
      8.84      -0.61      -0.14
      9.17       0.02      -0.02
      9.24       0.09      -0.09
      8.91       0.06       0.01
      8.92      -0.01       0.02
      9.32      -0.18      -0.15
      9.52      -0.16      -0.40
      9.59      -0.10      -0.50
      9.80      -0.28      -0.53
      8.56      -0.32       0.72
      8.46      -0.60       0.93
      8.90      -0.75       0.46
      9.14      -0.76       0.02
      9.24      -0.17       0.09
      9.18       0.24       0.12
      9.45      -0.11       0.02
      9.71      -0.06       0.45
      9.51      -0.31       0.54
      9.07      -0.51       0.50
      8.73      -0.19       0.49
      9.06      -0.18       0.55
      9.10      -0.23       0.35
      8.83      -0.29       0.39
      9.03      -0.51       0.50
      9.13      -1.05       0.79
      9.12      -0.78       0.73
      9.16      -0.86       0.53
      9.16      -0.84       0.19
      9.59      -0.33      -0.14
      9.64      -0.91       0.50
      9.27      -1.17       0.59
      9.14      -0.60       0.67
      9.17      -0.27       0.22
      9.45      -0.36      -0.05
      9.22      -0.37       0.07
      8.99      -0.57       0.24
      9.14      -0.69       0.23
      9.36      -0.59       0.14
      9.66      -0.93       0.22
      9.71      -1.27      -0.23
      9.32      -1.01      -0.27
      9.44      -0.68       0.46
      9.91      -0.99       0.33
      9.88      -1.21      -0.07
      9.72      -0.63      -0.34
      9.50      -0.77      -0.04
      9.38      -0.88       0.20
      9.35      -0.56       0.16
      9.05      -0.27      -0.09
      8.94      -0.06       0.01
      9.12      -0.00       0.12
      9.24       0.14       0.13
      9.26       0.07       0.19
      9.55      -0.34       0.08
     10.01      -0.66      -0.14
     10.34      -0.67      -0.22
      9.03       0.22       0.51
      9.26      -0.47       0.55
      9.43      -0.58       0.24
      9.47      -0.33       0.03
      9.72      -0.31       0.03
      9.71      -0.36       0.10
      9.95      -0.04       0.06
      9.78      -0.03       0.17
      9.27      -0.07       0.46
      9.27      -0.22       0.55
      9.45      -0.07       0.48
      9.31      -0.08       0.12
      9.03      -0.72       0.22
      9.09      -1.23       0.51
      9.37      -0.83       0.45
      9.32      -0.45       0.60
      9.44      -1.12       0.90
      9.56      -1.39       1.09
      9.40      -0.54       0.42
      9.01      -0.24      -0.00
      8.77      -0.47       0.64
      8.75      -0.46       0.91
      8.88      -0.28       0.76
      9.41      -0.12       0.49
      9.98      -0.30       0.40
      9.83      -0.40       0.03
     10.13      -0.54       0.10
      9.99      -0.55       0.02
      9.72      -0.59       0.37
      9.60      -0.65       0.32
      9.42      -0.86       0.14
      9.49      -1.27       0.04
      9.54      -1.23      -0.16
      9.67      -1.06      -0.02
      9.82      -1.22       0.14
      9.77      -0.97       0.18
      9.42      -0.78       0.15
      9.03      -1.12       0.08
      9.05      -1.07       0.02
      9.37      -0.85      -0.25
      9.17      -0.85      -0.19
      8.98      -0.65      -0.08
      8.94      -0.27      -0.05
      9.09      -0.23      -0.02
      9.50      -0.61      -0.10
      9.96      -0.76      -0.22
     10.31      -0.78      -0.23
      9.71       0.54       0.12
      9.71       0.07       0.35
      9.60      -0.37       0.02
      9.69      -0.63      -0.11
      9.79      -0.33      -0.07
      9.76      -0.11       0.03
      9.64      -0.38       0.41
      9.47      -0.14       0.17
      9.66       0.03       0.00
      9.56      -0.18       0.15
      9.27      -0.28       0.17
      9.03      -0.33       0.33
      9.06      -0.36       0.51
      9.23      -0.20       0.57
      9.12      -0.08       0.43
      8.98      -0.06       0.48
      9.23      -0.20       0.58
      9.25       0.00       0.55
      9.12       0.05       0.59
      8.91      -0.08       0.34
      8.80      -0.36       0.40
      9.20      -0.55       0.54
      9.54      -0.09       0.35
      9.73       0.34       0.12
      9.88       0.37       0.37
      9.99       0.31       0.27
      9.96       0.24      -0.18
     10.03      -0.22      -0.10
      9.94      -0.33       0.30
      9.92      -0.49       0.26
      9.92      -0.61       0.20
      9.88      -0.67       0.14
      9.91      -0.80      -0.04
      9.93      -0.84      -0.30
      9.80      -0.85      -0.21
      9.64      -0.92       0.21
      9.71      -1.05       0.21
      9.94      -1.04      -0.07
      9.88      -0.85      -0.17
      9.76      -0.98      -0.11
      9.85      -1.09      -0.12
      9.84      -0.81       0.04
      9.70      -0.59       0.21
      9.70      -0.63       0.27
      9.79      -0.77       0.23
      9.65      -0.92       0.10
      9.73      -0.95       0.02
