# vtk DataFile Version 3.0
Low resolution, disturbed wind of XZ Slice at time = 39 seconds.
ASCII
DATASET STRUCTURED_POINTS
DIMENSIONS    47     1    12
ORIGIN     635.00    1000.00      15.00
SPACING      30.00      30.00      30.00
POINT_DATA             564
VECTORS DisXZ float
      5.11       0.79      -0.16
      5.61       1.38       0.05
      4.34       0.13      -0.15
      4.06      -0.27       0.32
      5.68      -0.53      -0.10
      4.50      -0.46      -0.09
      4.13      -0.14      -0.15
      4.45      -0.03       0.23
      4.84       0.12      -0.15
      5.68       0.20      -0.91
      5.08      -0.18       0.66
      5.69       0.60      -0.42
      3.42       0.20       0.39
      3.45       0.31       0.42
      3.95       0.52       0.49
      5.21       0.68       0.55
      5.51       0.23       0.27
      5.81      -0.64       0.21
      5.91      -0.32       0.10
      5.19      -0.64      -0.25
      3.12       0.10       0.67
      3.43       0.14       0.30
      5.57      -0.35       0.31
      4.77      -0.76      -0.10
      4.36      -0.25       0.33
      4.96      -0.05       0.64
      4.40      -0.88      -0.27
      4.76       0.43       0.61
      5.06       1.13      -0.01
      4.98       0.83       0.27
      4.22       1.00       0.37
      4.59      -0.68       0.38
      4.53       0.68      -0.28
      4.88      -0.02      -0.20
      4.91      -0.62       0.07
      4.99       0.17      -0.05
      4.50       0.61      -0.33
      5.21       0.02      -0.47
      5.04       1.21       0.38
      5.64       0.07      -0.48
      5.96       1.12      -0.80
      5.94       0.76      -0.26
      4.77       0.24       0.51
      5.29       0.46       0.35
      5.27       0.07      -0.26
      5.49       0.16      -0.21
      4.02       0.23       0.27
      4.83      -0.92       0.31
      5.51       0.16      -0.09
      5.09       0.14       0.43
      5.06       0.34       0.39
      5.91      -0.34       0.37
      5.77      -0.29      -0.29
      5.59       0.53       0.29
      6.11       0.58       0.23
      5.76       0.28       0.35
      6.22       0.75       0.22
      6.62       0.30       0.18
      6.96       0.90      -0.81
      1.63      -0.10       0.87
      2.00      -0.37       0.28
      2.34      -0.16       0.33
      3.12       0.11       0.23
      3.40      -0.10       0.16
      3.52       0.86       0.20
      3.95      -0.13      -0.18
      4.26      -0.30       0.32
      4.34       0.37       1.23
      2.92      -0.42       0.09
      6.38      -0.71       0.80
      5.81       0.65       0.58
      7.30      -1.30       0.25
      6.93      -0.73       0.25
      5.71      -0.72       0.20
      5.69      -0.23       0.39
      6.31       0.64      -0.45
      7.33       1.11      -0.11
      6.61       0.77       0.03
      6.90       1.00       0.13
      5.90       0.23       0.11
      6.31       0.68      -0.11
      6.60       0.05      -0.29
      6.46       0.70      -0.21
      6.28       1.13      -0.13
      6.27       0.06       0.02
      6.37      -0.10      -0.81
      6.25       0.53      -0.09
      6.66       0.64       0.38
      7.71       0.29      -0.69
      6.62       0.45       0.21
      7.28       0.42       0.31
      5.76       0.46       0.46
      6.37       0.26      -0.22
      6.96      -0.26      -0.53
      6.38      -0.08       0.54
      7.10      -0.01       0.75
      7.02       0.27      -0.07
      7.75       0.69      -0.11
      6.53      -0.39       0.54
      6.49       0.26       0.27
      6.51       0.16       0.25
      6.57       0.08       0.19
      6.61       0.27       0.09
      6.25       0.01       0.00
      6.72      -0.09       0.12
      6.64      -0.22       0.56
      3.00      -0.02       0.64
      3.30      -0.03       0.28
      3.45       0.06       0.14
      3.83      -0.05       0.45
      3.69      -0.52       0.50
      3.34       0.07       0.89
      3.97       0.18       0.57
      3.91       0.23       0.25
      4.09      -0.14       0.76
      4.26      -0.48       0.38
      7.46      -0.37       0.52
      7.59      -0.06       0.23
      7.17      -0.29       0.10
      7.09      -0.35       0.08
      7.58      -0.38       0.07
      8.27      -0.70       0.25
      6.80       0.11      -0.17
      6.75       0.35      -0.24
      6.49       0.38       0.21
      6.91      -0.13       0.35
      7.00      -0.43      -0.12
      6.62      -0.26       0.28
      7.49       0.02       0.17
      7.13       0.40      -0.29
      7.40       0.49      -0.14
      6.94       0.26       0.42
      6.59       0.61       0.37
      6.52      -0.65       0.19
      6.96      -1.64       0.12
      7.59      -0.71      -0.72
      6.69       0.48       0.06
      6.57       0.62      -0.08
      7.20       0.68      -0.14
      7.27       0.61       0.39
      7.17      -0.71      -0.28
      7.96      -0.35       0.42
      7.35      -0.93       0.06
      7.01      -1.23       0.25
      7.04      -0.29       0.69
      7.66       0.04       0.48
      8.00       0.01       0.41
      7.50       0.18       0.26
      7.59       0.27       0.05
      6.30       0.18       0.20
      7.07       0.50       0.51
      6.37      -0.41       0.83
      6.75      -0.66       0.28
      7.13      -0.80       0.38
      4.45      -0.84       0.18
      4.68      -0.78       0.06
      4.44      -0.39       0.84
      4.36      -0.18       0.70
      4.28       0.16       0.87
      4.73       0.26       0.56
      4.17       0.09       1.17
      4.50       0.29       0.02
      5.08       0.99       0.15
      7.55       1.44      -0.10
      8.02       0.76       0.17
      8.03       0.45       0.20
      8.30      -0.34       0.12
      7.96       0.26       0.29
      8.48      -0.18       0.06
      8.74      -0.31      -0.32
      8.45      -0.33      -0.24
      7.28       0.00       0.32
      7.21       0.68       0.45
      7.48       0.15       0.49
      8.34      -0.28       0.31
      7.92      -0.39      -0.38
      7.51       0.27       0.22
      7.88       0.49      -0.27
      7.39      -0.02       0.36
      7.46       0.05       0.18
      7.93      -0.67      -0.38
      7.85      -0.15      -0.32
      7.39      -0.19      -0.16
      7.76      -0.27      -0.12
      7.85      -0.37       0.20
      8.02      -0.78      -0.04
      8.11      -0.22      -0.62
      7.87      -0.09      -0.25
      8.70      -0.92       0.29
      8.26      -0.88       0.24
      7.67      -0.92       0.54
      7.46      -1.42       0.69
      7.07      -1.09       0.38
      7.28      -0.09       0.49
      6.99       0.28       0.57
      6.16      -0.24       0.61
      6.37      -0.08       0.30
      6.86       0.01      -0.13
      7.56      -0.05      -0.15
      7.35      -0.03       0.02
      7.47      -0.34       0.20
      3.18      -0.38       0.53
      3.24      -0.98       0.58
      3.41      -0.95       0.64
      3.81      -0.55       0.92
      3.53      -0.25       0.82
      3.75      -0.22       0.79
      4.30      -0.08       0.74
      4.50      -0.03       0.58
      4.67       0.11       0.24
      7.76       0.57       0.03
      8.02       0.87       0.30
      8.21       0.67       0.16
      8.15       0.83       0.58
      8.75       0.23       0.58
      8.52      -0.25      -0.04
      8.54      -0.08       0.02
      8.06       0.04       0.01
      8.66      -0.01       0.35
      8.35       0.33       0.01
      8.46      -0.02      -0.10
      8.80      -0.42      -0.66
      8.90       0.03       0.20
      8.34      -0.28       0.13
      8.06       0.24       0.06
      7.73      -0.19       0.44
      7.74      -0.65       0.78
      8.13      -1.02      -0.11
      8.00      -1.09      -0.22
      8.47      -0.56       0.36
      8.90      -0.60       0.25
      8.72      -0.44       0.15
      8.78      -0.58       0.01
      8.25      -0.65      -0.19
      8.50      -0.26       0.22
      8.40       0.22       0.06
      8.84      -0.34      -0.17
      8.33      -1.03       0.63
      7.94      -1.00       0.95
      7.83      -0.81       0.58
      7.73      -0.45       0.91
      7.37      -0.06       1.25
      7.49       0.49       0.67
      7.86       0.61      -0.20
      7.61      -0.01      -0.64
      8.36       0.27      -0.67
      7.41       0.15      -0.11
      7.10       0.21       0.24
      5.76      -0.03      -0.09
      5.68      -0.37       0.13
      5.68      -0.55       0.46
      6.43      -0.09       0.41
      6.59      -0.02       0.51
      6.84       0.19       0.19
      6.88      -0.06       0.09
      6.61      -0.16       0.44
      7.02      -0.51       0.28
      8.45      -0.72       0.16
      8.10       0.30      -0.27
      8.07       1.08       0.43
      8.28       0.82       0.63
      8.46       0.13       0.39
      8.67      -0.15       0.06
      8.59      -0.38       0.04
      8.97      -0.10       0.02
      9.14      -0.05      -0.06
      8.83       0.27      -0.09
      8.86       0.43      -0.35
      8.75       0.41      -0.12
      8.52      -0.19       0.15
      8.15      -0.13       0.24
      7.98       0.06       0.45
      8.00       0.33       0.38
      7.98       0.34       0.14
      7.57      -0.08       0.33
      8.11      -0.57      -0.13
      8.30      -0.92       0.27
      8.38      -0.34       0.25
      8.34      -0.38       0.05
      8.57      -0.85      -0.14
      8.57      -0.85      -0.19
      8.73      -0.61       0.17
      9.49       0.32      -0.05
      8.95      -0.17      -0.25
      7.83      -0.58       0.11
      8.31      -0.94       1.12
      7.91      -0.78       0.85
      7.80      -0.52       1.06
      8.37       0.04       0.85
      8.43       0.23       0.33
      8.47      -0.03      -0.53
      9.13      -0.55      -1.18
      8.29       0.15      -0.43
      8.51      -0.10      -0.24
      7.95      -0.23       0.27
      8.10       0.15       0.41
      8.14      -0.00       0.25
      8.23      -0.19       0.34
      8.66      -0.42       0.10
      8.26      -1.03      -0.08
      8.46      -0.82      -0.18
      8.66      -0.28       0.16
      8.40       0.32       0.47
      8.46       0.21       0.02
      8.94       0.17       0.19
      9.02       0.35       0.22
      9.57       0.42      -0.08
      8.78       0.83       0.48
      8.90       0.61       0.72
      9.10       0.06       0.29
      9.34      -0.32      -0.07
      9.15      -0.32       0.08
      9.14      -0.37       0.30
      8.70      -0.23       0.17
      9.16      -0.63      -0.37
      9.23      -0.15      -0.42
      8.53       0.10       0.69
      8.45      -0.29       0.42
      8.39      -0.03       0.15
      8.92       0.10       0.21
      9.13       0.22       0.10
      8.31       0.19       0.48
      8.54      -0.40      -0.38
      8.72      -0.62      -0.22
      9.09      -0.79       0.21
      9.22      -0.53       0.08
      9.25      -0.67      -0.02
      9.22      -0.83      -0.01
      9.58      -1.04      -0.15
      9.32       0.20      -0.09
      9.04      -0.30       0.03
      8.72      -0.53       0.22
      8.54      -0.78       0.83
      8.28      -1.43       0.96
      8.16      -1.43       1.20
      9.09      -1.17       1.17
      8.72      -1.49       0.67
      9.84      -1.67      -0.94
      8.92      -0.39      -0.56
      8.51       0.21       0.10
      8.79      -0.55       0.20
      8.64      -1.03       0.17
      8.11      -0.39       0.41
      8.35      -0.60       0.25
      8.19      -1.11       0.36
      8.42      -1.39       0.39
      9.54      -1.03       0.06
      8.53      -1.22       0.12
      8.25      -1.21       0.30
      8.24      -1.08       0.28
      8.35      -0.95       0.36
      8.34      -1.06       0.41
      8.61      -1.34       0.38
      8.90      -0.70       0.40
      9.01       0.14       0.66
      9.36      -0.23       0.60
      9.20      -0.39       0.53
      8.99      -0.37       0.34
      8.78      -0.74       0.31
      8.79      -0.88       0.35
      8.66      -0.72      -0.30
      8.67      -0.69      -0.51
      8.86      -0.30      -0.31
      8.95       0.04       0.28
      9.42      -0.25       0.14
      9.78      -0.06      -0.18
      9.65      -0.04      -0.19
      9.00       0.04       0.44
      9.06       0.47       0.36
      9.38       0.09      -0.34
      9.21      -0.13      -0.34
      9.01      -0.23      -0.02
      9.27      -0.37       0.09
      9.38      -0.66       0.07
      9.63      -0.96      -0.26
      9.53      -0.98      -0.33
      8.90      -0.07       0.01
      8.93       0.31       0.17
      8.84      -0.36       0.01
      8.52      -0.18       0.56
      8.60      -0.08       0.70
      8.78      -0.51       0.63
      8.93      -1.12       0.75
      9.19      -1.73       0.54
      9.37      -0.80       0.23
      9.35      -0.27       0.13
      8.81      -0.28       0.14
      8.73      -0.22       0.20
      9.01      -0.43       0.65
      8.98      -0.57       0.25
      8.89      -0.72      -0.00
      9.33      -0.71       0.27
      9.64      -1.07      -0.24
      8.97      -1.22       0.40
      9.47      -0.66       0.47
      8.99      -0.49       0.34
      8.44      -0.94       0.38
      8.57      -1.11       0.33
      8.89      -1.07       0.27
      8.73      -1.18       0.34
      8.42      -0.83       0.44
      8.49      -0.69       0.48
      8.66      -0.84       0.49
      9.04      -1.11       0.28
      9.21      -0.92       0.40
      8.93      -0.91       0.80
      8.73      -1.16       0.71
      9.12      -1.12      -0.08
      9.24      -0.75      -0.60
      8.93      -0.92      -0.34
      8.73      -0.77      -0.22
      8.96      -0.24      -0.08
      9.35       0.17      -0.04
      9.13       0.06      -0.05
      8.90       0.05       0.06
      9.15      -0.14      -0.09
      9.47      -0.18      -0.27
      9.40      -0.12      -0.41
      9.47      -0.30      -0.39
      9.76      -0.47      -0.41
      9.95      -0.46      -0.40
     10.04      -0.91      -0.45
      9.77      -0.90      -0.45
      9.25      -0.51      -0.03
      9.29       0.13       0.17
      9.34       0.10      -0.00
      9.64      -0.17       0.07
      9.53      -0.23       0.59
      9.27      -0.50       0.69
      8.99      -0.44       0.53
      8.83      -0.02       0.41
      9.22      -0.26       0.47
      9.04      -0.33       0.32
      8.68      -0.39       0.43
      8.90      -0.56       0.72
      9.13      -0.52       1.04
      9.20      -0.55       0.59
      9.11      -0.82       0.37
      9.30      -0.44      -0.09
      9.67      -0.46       0.06
      9.56      -1.12       0.57
      9.13      -0.75       0.64
      9.08      -0.24       0.65
      9.22      -0.14       0.02
      9.40      -0.36      -0.06
      9.11      -0.49       0.20
      9.21      -0.57       0.25
      9.45      -0.62       0.08
      9.38      -0.76       0.15
      9.49      -1.09       0.25
      9.53      -1.07      -0.17
      9.61      -0.96       0.24
      9.97      -1.17       0.25
     10.47      -1.53       0.02
     10.18      -0.81      -0.26
      9.73      -0.81      -0.13
      9.45      -1.00       0.11
      9.38      -0.65       0.16
      9.14      -0.32      -0.13
      8.92      -0.12      -0.14
      9.07      -0.01       0.11
      9.27       0.05       0.12
      9.26       0.11       0.20
      9.39      -0.20       0.23
      9.82      -0.56      -0.01
     10.21      -0.57      -0.29
     10.14      -0.30      -0.37
     10.11      -0.37      -0.28
     10.17      -0.57      -0.12
      9.90      -0.82      -0.19
      9.63      -0.24       0.06
      9.86      -0.38       0.10
      9.81      -0.13       0.10
      9.89       0.06       0.11
      9.43      -0.03       0.35
      9.21      -0.24       0.51
      9.55      -0.24       0.51
      9.56      -0.11       0.28
      9.13      -0.40       0.14
      9.00      -1.08       0.34
      9.35      -1.05       0.41
      9.47      -0.63       0.43
      9.25      -1.10       0.55
      9.33      -1.65       0.73
      9.71      -0.71       0.82
      9.45      -0.18       0.12
      8.78      -0.44       0.25
      8.61      -0.47       0.87
      8.89      -0.37       0.88
      9.33      -0.28       0.49
      9.87      -0.17       0.31
     10.02      -0.46       0.19
      9.92      -0.47      -0.04
     10.21      -0.59       0.22
      9.66      -0.55       0.15
      9.46      -0.69       0.48
      9.40      -0.88       0.25
      9.24      -1.08       0.09
      9.52      -1.19      -0.02
      9.92      -1.10      -0.03
      9.91      -1.14       0.07
      9.80      -1.08       0.15
      9.68      -0.87       0.33
      9.43      -0.93       0.09
      9.47      -1.00       0.09
      9.64      -0.84      -0.15
      9.16      -0.95      -0.37
      8.94      -0.77      -0.05
      8.96      -0.44       0.02
      9.01      -0.20       0.03
      9.26      -0.35       0.01
      9.71      -0.51      -0.24
     10.23      -0.57      -0.39
     10.41      -0.63      -0.29
     10.11      -0.47      -0.08
      9.91      -0.35       0.09
     10.04      -0.37      -0.03
      9.78      -0.42       0.01
      9.73      -0.09      -0.01
      9.65      -0.27       0.32
      9.51      -0.38       0.33
      9.56       0.01      -0.04
      9.66      -0.14       0.10
      9.44      -0.35       0.20
      9.15      -0.40       0.27
      9.09      -0.41       0.44
      9.23      -0.26       0.60
      9.32      -0.10       0.58
      9.13      -0.05       0.45
      9.14      -0.02       0.47
      9.27       0.01       0.57
      9.05       0.11       0.63
      8.97       0.01       0.48
      8.98      -0.12       0.29
      9.06      -0.22       0.35
      9.45      -0.09       0.32
      9.65       0.35       0.12
      9.79       0.45       0.26
      9.97       0.35       0.32
     10.00       0.25      -0.11
      9.97      -0.12      -0.17
      9.97      -0.42       0.26
      9.82      -0.40       0.42
      9.85      -0.55       0.24
      9.85      -0.68       0.23
      9.74      -0.71       0.19
      9.80      -0.77      -0.07
      9.82      -0.82      -0.14
      9.74      -0.93       0.19
      9.86      -1.10       0.18
     10.02      -1.23      -0.22
      9.87      -1.04      -0.27
      9.69      -0.96      -0.08
      9.74      -0.98      -0.05
      9.85      -0.82      -0.05
      9.74      -0.67       0.13
      9.65      -0.65       0.24
      9.77      -0.72       0.25
      9.83      -0.90       0.07
      9.75      -0.88      -0.08
      9.89      -0.68      -0.15
     10.08      -0.64      -0.23
     10.09      -0.60      -0.12
     10.37      -0.67      -0.08
