# vtk DataFile Version 3.0
Low resolution, disturbed wind of XZ Slice at time = 30 seconds.
ASCII
DATASET STRUCTURED_POINTS
DIMENSIONS    47     1    12
ORIGIN     635.00    1000.00      15.00
SPACING      30.00      30.00      30.00
POINT_DATA             564
VECTORS DisXZ float
      4.57      -0.13       0.27
      4.04       0.19       0.23
      4.20      -0.41      -0.22
      4.17      -0.74       0.35
      4.69      -0.45      -0.00
      4.22      -0.26      -0.17
      4.69       0.06      -0.00
      5.13       1.15       0.22
      5.52       0.13      -0.61
      5.27      -0.35      -0.59
      4.83       0.62       0.13
      4.87       0.11      -0.08
      3.24       0.44       0.13
      3.95       0.24       1.03
      5.60       0.28       0.67
      5.84       0.28      -0.26
      6.01      -0.28      -0.16
      5.58      -0.02       0.43
      4.19       0.32       0.74
      3.31       0.08       0.20
      4.98       0.45       0.82
      5.56      -1.44       0.21
      3.88      -0.50       0.79
      4.31      -0.26       0.34
      3.39      -0.62       0.63
      4.93       0.42      -0.09
      4.50       1.52       0.07
      5.13       0.53      -0.33
      5.00       0.07       0.08
      5.03       0.13      -0.05
      4.36      -0.43      -0.50
      4.72       0.04       0.15
      4.20      -0.48       0.36
      4.30      -0.94      -0.23
      5.11       0.33      -0.23
      4.93       0.37      -0.06
      5.04      -0.03      -0.45
      5.51       0.98       0.08
      6.04       0.94      -0.68
      6.00      -0.18       0.04
      5.67       0.87       0.06
      5.49      -0.61      -0.41
      4.48       0.95       0.90
      5.60       0.16      -0.28
      5.56      -0.01      -0.02
      4.17       1.03       0.17
      4.90       0.27      -0.54
      5.71      -0.02       0.21
      4.79       0.36       0.53
      5.64      -0.46       0.28
      5.67      -0.32       0.04
      5.77       0.29       0.11
      6.15       0.59       0.20
      5.74       0.37       0.24
      5.97       0.12       0.42
      6.37       0.17       0.30
      6.44       0.42      -0.42
      5.92      -0.26       0.22
      5.99      -0.27      -0.14
      2.01      -0.07       0.43
      2.64      -0.05       0.32
      2.78       0.17       0.37
      2.59       0.73       0.11
      3.54      -0.19       0.27
      3.54      -0.10       0.42
      2.27       0.05       1.13
      2.29       0.53       0.17
      6.33      -0.64      -0.15
      6.19       0.86       0.77
      6.95      -1.06      -0.04
      6.68      -0.40       0.36
      7.11      -0.55       0.20
      6.04      -0.64       0.37
      6.09       0.25      -0.62
      6.39       0.77      -0.02
      6.20       0.57       0.20
      6.24       0.77       0.17
      5.71       0.12       0.32
      6.30       0.60      -0.23
      6.59      -0.16      -0.02
      6.42       0.67       0.00
      6.74       0.81      -0.01
      6.00      -0.22       0.45
      6.08      -0.60      -0.70
      6.32       0.38      -0.65
      6.53       0.71       0.13
      7.64      -0.04      -0.90
      6.63       0.98      -0.56
      6.74       0.62      -0.35
      5.81       0.62       0.53
      6.13       0.23       0.31
      6.92       0.03      -0.52
      7.22       0.07      -0.38
      6.70      -0.03      -0.29
      6.94       0.10       0.02
      8.23       0.69      -0.05
      6.31      -0.30       0.75
      6.34       0.14       0.45
      6.49       0.15       0.28
      6.74       0.16       0.15
      6.73       0.34       0.06
      6.35       0.18       0.04
      6.70      -0.21       0.08
      6.49      -0.17       0.48
      6.62      -0.09       0.26
      6.32       0.01      -0.00
      3.10       0.04       0.29
      3.95       0.03       0.44
      3.69      -0.18       0.67
      3.73       0.25       0.75
      3.99       0.36       0.68
      4.12       0.35       0.42
      4.06      -0.25       0.87
      4.31      -0.53       0.57
      7.44      -0.35       0.34
      7.58      -0.08       0.32
      7.35      -0.37       0.07
      7.26      -0.38      -0.09
      7.71      -0.28      -0.02
      7.71      -0.51       0.46
      6.60       0.02      -0.30
      7.03       0.29      -0.22
      6.37       0.30       0.65
      6.82      -0.14       0.31
      7.02      -0.21       0.07
      6.83      -0.20       0.32
      7.95      -0.11       0.19
      7.53       0.20      -0.23
      6.94       0.22      -0.38
      6.77       0.23       0.35
      6.39       0.37       0.36
      6.08      -0.54       0.46
      6.91      -1.44       0.34
      7.21      -0.19      -0.91
      6.89       0.49       0.08
      6.73       1.12      -0.21
      7.36       0.66      -0.14
      6.81       0.88       0.38
      7.46      -0.24      -0.34
      7.51       0.06      -0.04
      7.40      -0.16      -0.16
      6.94      -1.22       0.43
      7.10      -0.16       0.68
      7.97       0.23       0.55
      7.80       0.04       0.10
      7.57       0.18       0.42
      7.23       0.44      -0.03
      6.25       0.09       0.22
      6.42       0.53       0.63
      6.70      -0.47       0.66
      7.01      -0.25       0.27
      7.21      -0.56       0.33
      7.69      -0.92      -0.03
      7.49      -0.62       0.16
      4.01      -0.50       0.87
      4.28      -0.11       0.85
      4.40       0.35       0.91
      4.68       0.35       0.56
      4.19       0.20       0.88
      4.53       0.41       0.17
      5.12       1.18       0.37
      7.91       1.12       0.02
      7.89       0.71       0.41
      8.02       0.06       0.32
      8.02       0.33       0.28
      8.05      -0.01       0.28
      8.44      -0.16      -0.02
      8.48       0.06      -0.15
      8.04       0.14       0.14
      6.99       0.31       0.30
      7.24       0.50       0.29
      8.05      -0.56       0.22
      7.89      -0.20       0.03
      8.01      -0.09      -0.13
      7.74       0.45       0.49
      8.28       0.69      -0.30
      6.90       0.10       0.47
      7.29       0.05      -0.03
      8.01      -0.20      -0.31
      8.30      -0.52      -0.12
      7.91      -0.29      -0.32
      7.25      -0.53       0.05
      7.71      -0.66       0.24
      8.44      -0.53      -0.47
      8.16      -0.19      -0.21
      7.81       0.28       0.03
      7.89       0.54      -0.11
      8.24       0.18      -0.33
      7.24      -0.84       0.55
      7.33      -1.20       0.65
      7.08      -0.95       0.58
      7.37       0.10       0.59
      7.02       0.18       0.51
      6.33      -0.34       0.40
      6.37      -0.05       0.17
      7.08       0.21      -0.33
      7.37      -0.06       0.06
      7.40      -0.06       0.22
      7.39      -0.51       0.18
      7.43      -0.62       0.06
      7.27      -0.88       0.27
      3.27      -0.69       0.82
      3.07      -0.30       0.98
      3.27      -0.07       0.72
      3.68      -0.14       0.84
      4.14      -0.17       0.75
      4.33      -0.06       0.45
      4.17       0.30       0.11
      7.99       0.70       0.05
      8.05       0.82       0.02
      8.01       0.71       0.22
      8.55       0.49       0.42
      8.61       0.02       0.39
      8.53      -0.13      -0.15
      8.46       0.11       0.10
      8.19       0.23       0.08
      8.20       0.15       0.28
      8.41       0.01       0.17
      8.57      -0.02      -0.03
      8.73       0.05      -0.19
      8.21      -0.13       0.17
      8.02      -0.29       0.02
      8.19       0.05       0.36
      7.70      -0.66       0.68
      8.04      -0.67       0.54
      8.03      -1.05      -0.09
      8.45      -0.66       0.15
      8.52      -0.44       0.38
      8.55      -0.44       0.17
      8.68      -0.56       0.09
      8.28      -0.72      -0.11
      8.48      -0.47       0.30
      8.56      -0.07       0.02
      8.75      -0.30      -0.25
      8.70       0.03      -0.07
      8.04      -1.50       1.02
      8.10      -1.35       0.81
      7.75      -0.83       0.92
      7.54      -0.16       0.79
      7.29       0.14       1.14
      7.60       0.54       0.20
      7.63       0.20      -0.58
      7.99       0.11      -0.56
      8.05       0.55      -0.68
      7.34      -0.15       0.13
      7.35       0.22       0.45
      7.63       0.19       0.31
      7.35      -0.37       0.54
      6.36      -0.13       0.05
      6.48      -0.01       0.25
      6.77       0.18       0.22
      7.06       0.27      -0.22
      6.34       0.17       0.22
      6.56      -0.42       0.39
      6.94      -0.67       0.29
      8.59      -0.16       0.11
      8.39       0.73       0.37
      7.97       0.87       0.50
      8.49       0.39       0.60
      8.63      -0.03       0.16
      8.64      -0.12       0.09
      8.76      -0.33       0.07
      8.97      -0.21      -0.01
      8.73       0.12       0.37
      8.90       0.54      -0.29
      8.92       0.41      -0.18
      9.02      -0.48      -0.01
      8.36      -0.19       0.29
      8.19       0.06       0.19
      8.22       0.25       0.50
      7.86       0.10       0.37
      7.79       0.19       0.35
      7.70      -0.14       0.38
      8.24      -0.91       0.25
      8.45      -0.41       0.36
      8.22      -0.43       0.21
      8.28      -0.60      -0.09
      8.38      -0.91      -0.13
      8.61      -0.65       0.25
      8.75      -0.46       0.07
      9.03      -0.30      -0.09
      9.34      -0.15      -0.13
      7.78      -0.85       0.44
      7.81      -1.01       0.79
      7.78      -0.44       1.08
      7.98      -0.23       1.11
      8.56       0.48       0.69
      8.76      -0.11      -0.43
      8.52      -0.32      -0.94
      8.53      -0.87      -0.33
      8.32       0.24      -0.41
      8.44      -0.03       0.41
      8.04      -0.25       0.34
      8.16       0.14       0.71
      8.36      -0.07       0.60
      8.42      -0.18       0.12
      8.49      -0.70      -0.11
      8.44      -0.79      -0.34
      8.84      -0.91      -0.43
      8.73       0.22       0.37
      8.33       0.11       0.12
      8.82       0.22      -0.08
      9.14       0.30      -0.00
      9.35       0.26       0.19
      9.18       0.50       0.51
      8.90       0.82       0.66
      9.07       0.52       0.48
      9.65      -0.27      -0.14
      9.15      -0.28       0.11
      9.14      -0.33       0.14
      8.78      -0.28       0.21
      9.09      -0.53      -0.29
      9.23      -0.34      -0.43
      8.80       0.19       0.24
      8.58      -0.22       0.48
      8.32      -0.18       0.04
      8.78      -0.02       0.17
      9.37       0.61       0.27
      8.50       0.25       0.59
      8.39      -0.04      -0.03
      8.66      -0.57      -0.48
      8.94      -0.73       0.10
      8.96      -0.56       0.12
      9.27      -0.48      -0.01
      9.32      -0.72      -0.10
      9.31      -0.98      -0.09
      9.63      -0.95      -0.00
      9.90      -0.75      -0.15
     10.13      -0.80      -0.24
      8.44      -0.45       0.56
      8.41      -0.89       0.98
      8.42      -1.74       0.81
      8.89      -2.02       0.62
      9.01      -1.61       0.35
      9.50      -1.60      -0.53
      9.83      -1.09      -0.75
      8.55       0.05      -0.04
      8.62      -0.07       0.26
      8.58      -0.88       0.15
      8.18      -0.77       0.42
      8.03      -0.30       0.61
      8.43      -0.73       0.42
      8.48      -1.36       0.27
      9.50      -0.85       0.02
      9.08      -0.91      -0.10
      8.40      -1.29       0.10
      8.30      -1.43       0.32
      8.07      -1.12       0.17
      8.02      -0.97       0.18
      8.26      -1.10       0.20
      8.71      -0.89       0.26
      8.92      -0.12       0.53
      9.10      -0.21       0.70
      9.19      -0.50       0.53
      9.05      -0.24       0.43
      8.84      -0.53       0.30
      8.71      -0.90       0.40
      8.82      -0.79      -0.05
      8.64      -0.72      -0.55
      8.92      -0.43      -0.48
      8.99      -0.01       0.02
      9.36      -0.23       0.25
      9.72      -0.11      -0.05
      9.83      -0.05      -0.25
      9.04      -0.03       0.26
      9.05       0.22       0.49
      9.20       0.34      -0.02
      9.39      -0.20      -0.46
      9.07      -0.17      -0.15
      9.04      -0.35       0.11
      9.36      -0.65       0.09
      9.61      -0.99      -0.07
      9.53      -1.11      -0.21
      9.49      -0.83      -0.03
      9.68      -0.61      -0.15
      9.76      -0.62      -0.39
      8.95      -0.46       0.16
      8.71      -0.18       0.63
      8.71      -0.31       0.59
      8.66      -0.87       0.56
      8.92      -1.32       0.53
      9.17      -0.95       0.28
      9.32      -0.15       0.09
      9.11      -0.28       0.10
      8.69      -0.23       0.22
      8.91      -0.37       0.46
      9.13      -0.59       0.50
      8.93      -0.69       0.17
      8.88      -0.79       0.39
      9.34      -0.80       0.18
      9.39      -1.33      -0.12
      9.86      -0.90       0.35
      9.49      -0.50       0.29
      8.36      -0.85       0.41
      8.35      -1.12       0.18
      8.70      -1.12       0.04
      8.86      -1.12       0.09
      8.61      -1.15       0.19
      8.49      -0.81       0.28
      8.55      -0.79       0.41
      8.73      -1.03       0.37
      9.05      -1.09       0.27
      8.90      -0.93       0.75
      8.91      -1.00       0.74
      9.10      -1.13       0.03
      9.15      -0.81      -0.53
      8.86      -0.86      -0.43
      8.66      -0.85      -0.27
      8.80      -0.45      -0.12
      9.28       0.12      -0.06
      9.32       0.12      -0.03
      8.96       0.05       0.03
      9.04      -0.08       0.01
      9.38      -0.18      -0.21
      9.39      -0.17      -0.31
      9.25      -0.30      -0.35
      9.53      -0.53      -0.31
      9.81      -0.45      -0.33
      9.91      -0.77      -0.36
      9.84      -0.99      -0.39
      9.80      -0.88      -0.04
      9.91      -0.95      -0.14
      9.94      -0.74      -0.63
      9.51      -0.13      -0.09
      9.53      -0.27       0.39
      9.19      -0.36       0.85
      9.09      -0.44       0.71
      8.94      -0.16       0.38
      8.98      -0.04       0.39
      9.31      -0.50       0.39
      8.78      -0.44       0.28
      8.69      -0.49       0.49
      9.07      -0.42       0.86
      9.25      -0.38       0.74
      9.12      -0.81       0.37
      9.21      -0.51       0.16
      9.44      -0.35      -0.09
      9.37      -0.90       0.34
      8.91      -0.86       0.74
      8.88      -0.24       0.70
      9.18      -0.07       0.29
      9.31      -0.21      -0.10
      9.32      -0.46       0.06
      9.21      -0.50       0.27
      9.51      -0.54       0.10
      9.37      -0.75       0.07
      9.16      -0.97       0.35
      9.30      -1.01       0.20
      9.54      -1.08       0.18
      9.83      -1.29       0.39
     10.66      -1.46       0.15
     10.60      -1.11      -0.02
      9.84      -0.85      -0.21
      9.51      -1.11      -0.04
      9.30      -0.77       0.05
      9.12      -0.37      -0.10
      8.87      -0.18      -0.25
      9.02      -0.04       0.05
      9.26       0.03       0.14
      9.30       0.08       0.17
      9.32      -0.10       0.27
      9.66      -0.47       0.07
     10.03      -0.50      -0.30
     10.11      -0.25      -0.39
     10.01      -0.32      -0.25
     10.13      -0.59      -0.13
      9.98      -0.81      -0.17
      9.95      -0.92      -0.28
     10.20      -0.74      -0.14
     10.22      -0.37      -0.15
      9.79       0.08       0.12
      9.63       0.05       0.25
      9.23      -0.20       0.42
      9.46      -0.39       0.45
      9.74      -0.16       0.36
      9.27      -0.30       0.20
      8.99      -0.73       0.32
      9.25      -0.96       0.46
      9.43      -0.66       0.39
      9.23      -0.97       0.40
      9.16      -1.49       0.52
      9.64      -0.85       0.78
      9.75      -0.03       0.46
      8.98      -0.40       0.12
      8.61      -0.60       0.66
      8.88      -0.48       0.91
      9.38      -0.40       0.53
      9.77      -0.22       0.23
     10.09      -0.35       0.23
      9.93      -0.57      -0.01
     10.11      -0.49       0.14
      9.90      -0.62       0.26
      9.31      -0.67       0.29
      9.41      -0.96       0.39
      9.37      -1.09       0.11
      9.45      -1.07       0.06
     10.03      -1.05       0.04
     10.01      -1.20       0.04
      9.74      -1.11       0.20
      9.74      -0.93       0.41
      9.74      -0.84       0.11
      9.83      -0.91       0.02
      9.88      -0.87      -0.04
      9.25      -1.00      -0.52
      8.98      -0.87      -0.12
      8.98      -0.53       0.10
      9.01      -0.25       0.08
      9.17      -0.24       0.06
      9.56      -0.41      -0.14
     10.09      -0.48      -0.44
     10.51      -0.64      -0.29
     10.18      -0.55      -0.09
      9.92      -0.36       0.12
      9.98      -0.32       0.02
     10.18      -0.45      -0.10
     10.14      -0.60      -0.06
     10.37      -0.80      -0.06
      9.53      -0.43       0.40
      9.53      -0.16       0.01
      9.65      -0.02       0.02
      9.56      -0.40       0.20
      9.29      -0.45       0.26
      9.16      -0.45       0.40
      9.26      -0.34       0.57
      9.36      -0.14       0.67
      9.31      -0.08       0.51
      9.21      -0.03       0.39
      9.27       0.02       0.52
      9.13       0.10       0.66
      8.94       0.10       0.56
      9.05      -0.03       0.30
      9.11      -0.06       0.27
      9.30       0.03       0.24
      9.63       0.29       0.15
      9.70       0.52       0.18
      9.97       0.37       0.34
     10.03       0.27      -0.06
      9.96      -0.06      -0.17
      9.97      -0.45       0.17
      9.87      -0.49       0.45
      9.83      -0.45       0.31
      9.83      -0.72       0.19
      9.69      -0.73       0.33
      9.66      -0.75       0.17
      9.74      -0.85      -0.02
      9.77      -1.02       0.11
      9.89      -1.20       0.08
      9.96      -1.38      -0.31
      9.89      -1.21      -0.30
      9.81      -1.00      -0.07
      9.76      -0.91       0.01
      9.79      -0.79      -0.07
      9.72      -0.73       0.04
      9.65      -0.72       0.19
      9.72      -0.73       0.20
      9.93      -0.84       0.04
      9.88      -0.87      -0.17
      9.87      -0.62      -0.18
     10.08      -0.57      -0.26
     10.21      -0.54      -0.26
     10.32      -0.58      -0.11
     10.49      -0.71      -0.24
     10.15      -0.92      -0.22
      9.94      -0.91      -0.16
