# vtk DataFile Version 3.0
Low resolution, disturbed wind of XY Slice at time = 12 seconds.
ASCII
DATASET STRUCTURED_POINTS
DIMENSIONS    47    26     1
ORIGIN     635.00     635.00      85.00
SPACING      30.00      30.00      30.00
POINT_DATA            1222
VECTORS DisXY float
      8.86       0.62       0.17
      8.62       0.77       0.49
      8.72       0.54       0.65
      9.21       0.95       0.47
      8.79       0.79       0.44
      8.07       0.26       0.47
      8.63       0.62       0.73
      8.25       0.82       0.81
      8.15       0.22       0.78
      8.47       0.13       0.57
      8.71       0.06       0.05
      9.11       0.35      -0.38
      9.02       0.11      -0.23
      9.18       0.22       0.01
      9.15      -0.02       0.13
      8.67      -0.42      -0.38
      8.65       0.35      -0.15
      9.25       0.54      -0.51
      9.55       1.46      -0.09
      8.85       1.33      -0.04
      8.82       0.72       0.27
      8.46       0.12       0.08
      8.28       0.69      -0.35
      8.44       0.27      -0.40
      8.25       0.01       0.08
      8.35      -0.11      -0.06
      8.68      -0.33       0.35
      8.65       0.00      -0.29
      8.14       0.61       0.39
      7.33       0.20       0.59
      7.62       0.11      -0.49
      7.87       0.29       0.20
      6.89      -0.33       0.62
      6.95      -0.46       0.43
      6.53      -0.58       0.45
      6.77      -0.06       0.83
      6.89       0.53       0.28
      6.43       0.15       0.17
      6.98       0.14       0.28
      7.29       0.64       0.57
      6.60      -0.26       0.34
      6.81      -0.02       0.45
      7.32       0.48       0.64
      7.75       0.52       0.01
      8.04       0.87       0.09
      7.42       0.75       0.31
      7.59       0.21      -0.02
      8.21       1.13      -0.26
      8.20       0.73       0.37
      8.07       0.64       0.83
      8.08       0.46       0.20
      7.99       0.45       0.14
      8.06       0.27       0.23
      7.91       0.33       0.36
      7.79       0.22       0.17
      7.80       0.32      -0.06
      7.90       0.08      -0.20
      8.37       0.18       0.18
      8.20       0.20      -0.11
      7.96       0.34       0.24
      7.16       0.27       0.68
      7.85       0.10       0.32
      8.76      -0.24      -0.28
      8.92       0.39      -0.18
      8.87       0.46      -0.17
      8.93       0.64      -0.61
      9.17       0.91      -0.15
      8.81       0.60       0.03
      8.65       0.42      -0.14
      8.47       0.62      -0.31
      8.51       0.70      -0.14
      8.47       0.38       0.05
      8.11      -0.15       0.42
      8.26      -0.10       0.26
      8.06      -0.01       0.03
      8.28       0.98      -0.02
      8.52       0.54      -0.20
      8.40      -0.06       0.07
      8.12       1.03      -0.02
      8.15       0.34      -0.34
      7.52      -0.02       0.71
      7.14      -0.50       0.82
      7.23      -0.35      -0.24
      7.13       0.10      -0.30
      7.19      -0.53       0.02
      7.75       0.44      -0.11
      7.74       0.34       0.36
      7.51      -0.27       0.18
      6.87      -0.05       1.00
      7.12       0.22       0.82
      7.12       0.71       0.08
      7.38       0.68      -0.14
      7.82       0.82       0.28
      7.73       0.30      -0.16
      7.21       0.87       1.01
      7.71       0.88       0.90
      7.79       0.63       0.36
      7.22       0.37       0.06
      6.99       0.14       0.11
      7.33      -0.09       0.28
      7.33      -0.20       0.23
      7.12      -0.04       0.36
      7.37      -0.09       0.20
      7.58       0.34       0.27
      8.43       0.28      -0.12
      8.46       0.40       0.16
      7.88       0.18       0.15
      8.07       0.02      -0.01
      8.77       0.14      -0.26
      8.05       0.21       0.07
      7.49      -0.24       0.12
      8.05       0.35       0.17
      8.24       0.48      -0.21
      8.59       0.56      -0.27
      8.20       0.57      -0.18
      8.42       0.95      -0.25
      8.29       0.31       0.29
      8.90       0.41       0.66
      8.90       0.30       0.61
      7.92       0.13       0.06
      7.60      -0.24      -0.16
      7.26       0.15       0.10
      7.40       0.34       0.80
      7.96       0.54      -0.14
      7.21       0.30       0.14
      7.40       0.62       0.45
      7.78       0.76      -0.01
      7.28      -0.06       0.22
      6.99      -0.35       0.20
      6.80      -0.55       0.32
      6.99      -0.67       0.46
      7.57      -0.37       0.13
      7.73      -0.07      -0.39
      8.80      -0.13      -0.90
      7.96       0.24      -0.15
      7.81       0.50       0.08
      7.83       0.26       0.04
      7.72       0.39      -0.42
      7.53       0.76       0.24
      8.13       1.06       0.34
      7.47       0.45       0.44
      6.86       0.59       0.77
      7.85       0.62       0.37
      7.32       0.14       0.49
      7.06       0.23      -0.49
      6.87      -0.14       0.63
      7.00      -0.24       0.50
      7.22      -0.12       0.13
      7.55       0.20       0.38
      7.95       0.13      -0.17
      7.98       0.16      -0.23
      7.56       0.52       0.13
      7.78       0.12      -0.45
      7.88       0.28      -0.48
      7.35      -0.27       0.20
      7.37      -0.15      -0.05
      7.73       0.12       0.49
      7.08      -0.08       0.19
      7.38       0.18       0.55
      7.34       0.02       0.43
      7.47       0.28      -0.33
      7.64       0.33       0.18
      7.39       0.60       0.83
      6.92       0.68       0.84
      7.19       0.68       0.35
      7.37       0.42      -0.01
      7.93       0.35      -0.00
      8.02       0.11       0.02
      7.71       0.26      -0.41
      7.39       0.49      -0.18
      7.09       0.79       0.32
      7.43       0.73       0.78
      7.18       0.16       0.22
      7.14       0.30       0.55
      7.60       0.21       0.65
      7.66       0.30      -0.10
      7.38      -0.35       0.52
      7.13      -0.47       0.46
      7.60      -0.32      -0.07
      7.91      -0.03      -0.67
      8.16      -0.29      -0.48
      8.35      -0.05      -0.32
      7.95       0.94       0.32
      7.93       0.63      -0.37
      7.91       0.63       0.55
      7.38      -0.08      -0.34
      6.43       0.59       0.53
      6.31       0.70       0.98
      7.32       0.57      -0.10
      6.91       0.49       0.80
      6.42       0.37       0.76
      7.07       0.22      -0.15
      7.56       0.34      -0.35
      6.49      -0.40       0.11
      6.25      -0.19       0.24
      6.69       0.31       0.35
      6.98       0.02       0.47
      7.12       0.52       0.54
      7.26       0.35      -0.13
      6.79       0.29       0.20
      5.90       0.26       0.40
      6.11       0.01       0.41
      6.32      -0.38       0.53
      6.69      -0.87       0.51
      6.98      -0.21      -0.18
      7.15       0.28      -0.10
      7.33       0.37       0.61
      7.18       0.37       0.33
      7.66       0.39       0.08
      7.17       0.56       0.73
      7.13       0.68       0.54
      7.34       0.39      -0.24
      6.92       0.65       0.13
      7.54       0.28      -0.06
      7.40       0.06      -0.17
      7.50       0.16       0.26
      7.38       0.92       0.19
      7.60       0.81       0.00
      7.46       1.03       0.20
      7.73       0.07       0.07
      7.62       0.43      -0.01
      8.49       0.07       0.18
      7.88      -0.03      -0.61
      8.36      -0.13       0.07
      7.52      -0.06       0.47
      6.90       0.21       0.98
      7.30       0.28       0.48
      7.17      -0.42      -0.02
      7.08      -0.18       0.12
      7.31       0.36      -0.66
      7.20       0.65       0.10
      7.22       0.37       0.66
      6.43       0.80       0.35
      6.53       0.79       0.47
      7.28       0.40       0.10
      7.47       0.45      -0.17
      7.22       0.85       0.36
      7.26       0.42       0.12
      6.76       0.34       0.15
      7.22       0.34       0.01
      7.45      -0.07      -0.39
      7.45       0.28      -0.36
      7.84       0.10      -0.31
      7.86      -0.22      -0.33
      6.93       0.28      -0.09
      6.66       0.45       0.19
      6.31       0.15       0.49
      6.52       0.12       0.30
      6.86       0.07       0.20
      7.22       0.02       0.28
      7.06      -0.42       0.32
      6.70      -0.26       0.68
      6.84       0.11       0.39
      6.88       0.38       0.23
      6.84       0.82       0.37
      6.60       0.50       0.69
      6.52       0.61       0.67
      6.82       0.26       0.51
      7.04       0.10       0.53
      7.32       0.04       0.19
      7.84      -0.02      -0.02
      7.44      -0.13      -0.14
      7.67      -0.22      -0.17
      7.66       0.40      -0.10
      7.56       0.96       0.07
      7.91       0.65      -0.25
      7.96       0.38      -0.09
      8.12      -0.06      -0.13
      7.37      -0.08      -0.06
      7.02      -0.01      -0.18
      7.22       0.17      -0.02
      7.10       0.16       0.08
      7.55      -0.04      -0.17
      7.74      -0.04      -0.40
      7.08       0.14      -0.16
      6.87       0.21       0.31
      6.65       0.51       0.57
      6.69       0.84       0.47
      6.73       0.41       0.65
      6.77       0.64       0.65
      7.31       0.15       0.20
      7.53      -0.17      -0.10
      7.11       0.24       0.27
      7.12       0.75       0.43
      7.32       0.85       0.07
      7.05       0.44       0.00
      7.35      -0.14       0.47
      7.66      -0.26       0.46
      7.78      -0.41       0.23
      8.25      -0.42      -0.02
      8.38       0.27      -0.16
      8.44       0.59      -0.76
      8.29       0.42      -0.78
      8.21      -0.30      -0.60
      7.91      -0.03      -0.11
      8.17      -0.20      -0.10
      7.72      -0.20       0.19
      7.54       0.06      -0.19
      7.74       0.09      -0.11
      7.91       0.07       0.17
      7.78       0.23       0.17
      7.40       0.19       0.02
      7.21       0.58       0.49
      7.22       0.42       0.22
      7.25       0.16       0.31
      7.67       0.38      -0.17
      8.00       0.34      -0.32
      7.82      -0.09      -0.52
      8.25      -0.36      -0.51
      8.15       0.06      -0.58
      7.69       0.46      -0.10
      7.87       0.48      -0.35
      7.80       0.29      -0.03
      8.12       0.64       0.28
      7.36       0.28       0.06
      7.40       0.04      -0.01
      7.27       0.21      -0.03
      7.13       0.24      -0.08
      7.22      -0.07      -0.13
      7.04       0.02       0.42
      7.44       0.16       0.11
      7.20       0.19       0.19
      7.05       0.43       0.05
      7.15       0.39      -0.13
      7.04       0.62       0.07
      7.16       0.27       0.36
      7.45       0.50       0.10
      7.59       0.29       0.30
      7.62      -0.14      -0.00
      7.78       0.15      -0.29
      7.28       0.84       0.20
      6.92       1.14       0.15
      7.18       0.06       0.76
      8.24      -0.48       0.14
      7.63      -1.10       0.15
      7.74      -0.29       0.06
      7.86      -0.16      -0.22
      8.04       0.28       0.13
      8.22       0.35       0.02
      8.62      -0.04      -0.33
      8.54      -0.23      -0.44
      8.58       0.43      -0.11
      8.83       0.16      -0.40
      7.98      -0.04       0.18
      7.55       0.04       0.00
      7.31      -0.31       0.48
      7.28       0.14       0.46
      7.47       0.74       0.26
      7.32       0.18      -0.17
      7.08      -0.33       0.45
      7.38      -0.15       0.45
      7.58       0.13       0.38
      7.78       0.22      -0.12
      8.10       0.10      -0.05
      7.74      -0.11      -0.05
      7.35      -0.31       0.21
      7.28       0.39      -0.04
      7.39       0.18      -0.50
      7.86       0.48       0.01
      7.50       0.29       0.20
      7.75       0.52       0.45
      7.95       0.12      -0.03
      7.96       0.02      -0.36
      8.36      -0.04      -0.18
      7.77       0.21      -0.05
      7.65      -0.49      -0.01
      7.67      -0.15      -0.55
      7.52       0.13      -0.16
      7.34       0.19       0.02
      7.40       0.61      -0.22
      7.56       0.18      -0.37
      7.71       0.12      -0.19
      7.90       0.16      -0.04
      7.86       0.30      -0.13
      8.30      -0.12      -0.22
      7.83      -0.03      -0.38
      8.58      -0.07      -0.22
      8.08       1.01      -0.16
      7.94       0.34      -0.04
      8.17      -0.29      -0.13
      8.24      -0.92      -0.40
      7.72      -0.43      -0.34
      7.80      -0.18       0.23
      7.93       0.15       0.06
      8.29       0.14       0.01
      8.42      -0.15      -0.25
      7.73      -0.23      -0.07
      8.11       0.00      -0.04
      8.72       0.09      -0.19
      8.51       0.34      -0.08
      8.23       0.35       0.47
      7.68       0.70      -0.13
      7.54       0.24       0.22
      6.88       0.01       0.56
      6.94       0.36       0.50
      7.60      -0.10      -0.02
      7.60      -0.41      -0.01
      7.25      -0.50      -0.25
      7.24      -0.63      -0.18
      7.33      -0.20       0.05
      8.04       0.06       0.21
      7.96       0.22       0.02
      7.74       0.07      -0.21
      7.48       0.04      -0.35
      7.82      -0.07      -0.32
      7.35       0.14       0.13
      7.30       0.04       0.08
      7.72       0.08       0.28
      7.46      -0.16       0.04
      7.55      -0.43      -0.29
      7.83       0.14      -0.33
      8.11       0.24      -0.16
      7.29      -0.60      -0.01
      7.10      -0.41       0.23
      7.54       0.02      -0.04
      7.61       0.43      -0.12
      7.47      -0.09       0.05
      7.32      -0.10       0.12
      7.49       0.11      -0.17
      7.90       0.17      -0.29
      8.41       0.07      -0.44
      8.32      -0.10      -0.49
      7.78      -0.16      -0.30
      8.68       0.30      -0.05
      8.74       0.54      -0.00
      8.46      -0.21      -0.27
      8.87      -0.07      -0.07
      7.74      -0.33       0.28
      7.47      -0.22       0.53
      7.58       0.14       0.14
      7.97      -0.08       0.05
      7.65      -0.33       0.17
      7.97       0.40       0.29
      7.76       0.05       0.09
      7.88      -0.09      -0.02
      7.67       0.52       0.09
      7.76       0.63       0.42
      7.93       0.44       0.10
      7.85       0.59       0.16
      7.24       0.20       0.30
      7.32      -0.21       0.04
      7.72       0.16      -0.00
      7.73      -0.20       0.04
      7.74      -0.28      -0.04
      7.45      -0.60       0.17
      7.05      -0.82      -0.22
      7.20      -0.68      -0.05
      7.54      -0.42       0.08
      7.76       0.12       0.37
      7.67       0.38      -0.29
      7.73       0.19      -0.26
      7.14       0.39      -0.22
      6.92      -0.00       0.12
      7.05       0.14       0.60
      7.42      -0.24       0.05
      7.68       0.06      -0.27
      7.80      -0.27      -0.27
      7.85      -0.01       0.03
      8.03       0.40       0.01
      7.27       0.02       0.10
      7.15      -0.10       0.24
      7.37       0.23       0.13
      7.15       0.09      -0.13
      7.59      -0.06      -0.19
      7.65      -0.17      -0.04
      7.35      -0.16       0.15
      7.03       0.30       0.19
      7.16      -0.41      -0.12
      8.12      -0.08      -0.55
      8.25      -0.27      -0.72
      8.32       0.31      -0.57
      8.51       0.31      -0.64
      8.44       0.18      -0.07
      7.91      -0.19      -0.64
      8.10       0.16      -0.13
      8.13       0.10      -0.34
      7.57       0.22       0.29
      8.50      -0.23      -0.07
      7.80      -0.51       0.10
      7.77      -0.11      -0.11
      7.78       0.59       0.27
      7.95       0.10       0.16
      4.81       0.45       0.33
      4.58       1.15       0.13
      5.38       0.72       0.19
      5.27       0.52       0.39
      7.55       0.19       0.45
      7.23       0.44       0.17
      7.36      -0.07       0.44
      7.49      -0.06      -0.02
      7.50      -0.32       0.00
      7.74      -0.43       0.15
      7.83      -0.25      -0.35
      7.34       0.01      -0.22
      6.87      -0.28       0.78
      7.06       0.77       0.65
      7.35       0.17       0.18
      7.24       0.26      -0.38
      7.23       0.17      -0.12
      7.19       0.27       0.01
      6.71      -0.02       0.52
      6.76      -0.64       0.01
      6.45      -0.34      -0.26
      6.79      -0.02      -0.31
      7.07       0.23      -0.07
      7.32       0.17      -0.50
      7.62       0.31      -0.32
      6.88       0.39       0.17
      7.37       0.19       0.25
      7.82       0.07      -0.39
      7.85       0.41      -0.15
      7.50       0.26       0.04
      7.62       0.32       0.26
      7.50       0.48       0.43
      8.02      -0.73      -0.29
      7.75      -0.41      -0.22
      8.03      -0.19      -0.55
      7.35       0.17      -0.14
      7.57       0.33      -0.22
      7.44      -0.33      -0.11
      7.88      -0.13      -0.40
      7.05       0.47      -0.45
      7.07      -0.02       0.34
      7.52       0.07       0.42
      7.27      -0.35      -0.12
      7.21      -0.24       0.09
      7.09       0.02       0.21
      6.98       0.25       0.20
      7.49       0.48       0.13
      4.32       0.64       0.78
      3.12       0.81       0.45
      3.55       0.34       0.61
      3.89       0.21       0.92
      7.68      -0.04       0.51
      7.34       0.36       0.45
      7.59       0.38       0.29
      7.42      -0.39      -0.02
      7.40      -0.21       0.23
      7.62      -0.25       0.16
      7.95      -0.04      -0.62
      7.50       0.02      -0.28
      7.11       0.12       0.36
      6.61       0.27       0.19
      6.88       0.12       0.06
      7.17       0.17       0.05
      7.17       0.09      -0.03
      7.27       0.30       0.22
      7.40       0.07       0.09
      7.07      -0.19      -0.24
      6.47      -0.32       0.31
      6.44      -0.71       0.23
      6.60      -0.41       0.01
      7.04      -0.46       0.02
      6.98       0.29       0.13
      6.29       0.34       0.21
      7.27      -0.04       0.12
      6.90      -0.01       0.06
      7.15       0.14      -0.34
      6.49      -0.03       0.78
      7.24      -0.45       0.39
      8.13      -0.25      -0.08
      7.58      -0.39      -0.29
      7.68       0.02      -0.57
      7.62      -0.37      -1.06
      6.91       0.39       0.17
      6.61       0.29      -0.04
      6.64       0.26       0.09
      6.32       0.33       0.18
      6.92      -0.05       0.19
      6.96      -0.22       0.34
      7.02      -0.28       0.18
      6.73      -0.32       0.21
      6.85      -0.15       0.40
      7.00      -0.00       0.40
      6.96       0.26       0.58
      7.19       0.42       0.34
      5.08       0.48       0.58
      4.34       0.48       0.26
      4.47      -0.09       0.60
      4.67       0.19       0.81
      7.96       0.36       0.19
      7.55      -0.03       0.38
      7.77      -0.41       0.13
      7.87       0.05      -0.08
      7.74      -0.43      -0.05
      7.54      -0.51      -0.04
      7.68       0.09      -0.40
      7.10       0.21       0.36
      6.38       0.56       0.53
      7.19      -0.03       0.39
      7.50      -0.13      -0.12
      7.73      -0.30       0.15
      7.77       0.27      -0.00
      7.86       0.42       0.07
      6.73       0.13      -0.40
      6.34       0.08       0.67
      7.13       0.21       0.32
      7.25      -0.25      -0.02
      7.63      -0.35      -0.78
      7.48      -0.65      -0.90
      7.15       0.27       0.09
      7.66       0.66      -0.57
      7.07       0.16       0.00
      6.97       0.58      -0.03
      7.92       0.37      -0.39
      7.65      -0.23      -0.67
      8.05       0.11      -0.69
      7.58      -0.33       0.30
      7.06      -0.02      -0.07
      7.06      -0.31      -0.17
      6.57      -0.19      -0.02
      6.87       0.37       0.46
      6.64       0.21      -0.00
      6.84       0.37       0.23
      6.60      -0.20       0.52
      6.62      -0.56       0.49
      6.70      -0.64       0.16
      7.15      -0.59       0.01
      7.30      -0.71      -0.24
      7.58      -0.72      -0.10
      7.53      -0.19       0.08
      7.27       0.21       0.11
      7.26       0.30       0.10
      5.14      -0.14       0.62
      4.06       0.21       0.58
      3.97       0.25       0.44
      4.46       0.08       0.23
      7.89       0.65      -0.09
      7.98       0.60      -0.18
      7.99       0.00       0.29
      7.12      -0.48       0.20
      7.69      -0.35       0.57
      7.20       0.05       0.50
      7.44       0.27      -0.06
      7.23       0.61       0.06
      7.36      -0.05      -0.10
      7.64      -0.48      -0.45
      6.42       0.05       0.56
      6.70      -0.25       0.56
      7.05      -0.11       0.71
      6.91       0.50      -0.02
      6.74       0.48       0.53
      7.10       0.35      -0.31
      7.27      -0.20      -0.27
      7.70      -0.56      -0.66
      7.23      -1.22       0.06
      6.09      -0.61       0.11
      5.89      -0.67       1.01
      6.78      -0.14       0.10
      7.15       0.47      -0.20
      7.38      -0.07      -0.66
      7.46      -0.13      -0.13
      7.77       0.13      -0.61
      6.98      -0.21      -0.05
      7.33      -0.43       0.20
      6.73       0.53       1.22
      6.64       0.38       0.17
      6.64       0.19      -0.58
      6.50       0.01       0.04
      6.86      -0.09       0.14
      6.85      -0.13      -0.18
      6.95      -0.49      -0.35
      7.36      -0.60      -0.77
      7.25      -0.45      -0.45
      6.87      -0.40       0.14
      7.11      -0.25       0.19
      7.33      -0.19      -0.06
      7.23      -0.02      -0.04
      7.34      -0.05       0.11
      7.91      -0.00       0.04
      5.25       0.05       0.32
      3.88      -0.04       0.39
      4.10       0.30       0.33
      4.38       0.03      -0.40
      8.12       0.04      -0.47
      8.32       0.22      -0.40
      8.32      -0.17      -0.44
      7.72       0.13      -0.44
      7.45       0.15       0.05
      7.47       0.56       0.46
      7.82       0.24       0.14
      8.33       0.11      -0.28
      7.94      -0.08      -0.59
      7.98      -0.22      -0.22
      7.72      -0.11       0.03
      7.19       0.18       0.86
      6.46       0.07       0.34
      6.68       0.42       0.50
      7.23       0.25       0.34
      7.74       0.41      -0.41
      7.96      -0.58      -1.14
      8.20      -0.27      -0.94
      6.90      -0.04      -0.20
      6.93       0.10      -0.10
      6.21      -0.35      -0.12
      6.60       0.25       0.38
      6.88       0.56       0.15
      7.36      -0.03       0.16
      6.83      -0.04       0.45
      6.82       0.05       0.35
      6.98       0.08       0.27
      6.82      -0.24       0.22
      7.36       0.41       0.36
      7.62       0.55       0.06
      7.36       0.45      -0.25
      6.55      -0.68       0.78
      6.57      -0.41       1.33
      6.12      -0.43       0.87
      7.23      -1.07      -0.46
      7.16      -0.26      -0.40
      6.70       0.04      -0.20
      7.63      -0.11      -0.31
      7.36      -0.47       0.06
      7.15      -0.22       0.36
      7.34      -0.27       0.15
      7.64      -0.41       0.17
      7.59      -0.36       0.30
      7.70       0.08      -0.09
      7.43      -0.71      -0.55
      7.64      -0.22      -0.83
      7.04      -0.37      -0.02
      7.84      -0.28      -0.30
      6.82      -0.21       0.18
      6.53       0.16       0.49
      6.71       0.12       0.19
      7.05      -0.48      -0.31
      7.34      -0.08      -0.10
      7.71      -0.17      -0.32
      7.42      -0.08      -0.33
      7.87       0.62      -0.16
      7.10      -0.01       0.21
      7.97       0.25      -0.73
      7.34       0.57       0.41
      7.50      -0.44       0.01
      7.80      -0.24       0.03
      8.11      -0.21       0.35
      7.98      -0.25       0.32
      7.86      -0.48      -0.23
      8.36      -0.31      -0.77
      8.04       0.06      -0.54
      7.19       0.42       0.10
      7.54       0.16      -0.26
      8.14       0.54       0.20
      6.86       0.21       0.25
      6.33       0.57       0.47
      6.77       0.47       0.55
      7.04       0.30       0.30
      6.64       0.02       0.05
      6.47       0.18      -0.03
      6.63      -0.01       0.32
      6.86       0.22       0.44
      7.29       0.25       0.42
      7.84      -0.80       0.53
      6.60      -0.28       0.30
      6.70      -0.39      -0.03
      7.23      -0.19      -0.57
      7.60      -0.32      -0.91
      8.03      -0.76      -0.78
      8.04      -0.76      -0.37
      7.95      -0.34      -0.19
      7.64      -0.17       0.21
      7.78      -0.44       0.24
      7.85      -0.30      -0.14
      7.48      -0.40      -0.16
      7.11      -0.68       0.06
      7.88      -0.46      -0.23
      7.60      -0.49      -0.15
      7.19      -0.03       0.06
      7.57      -0.27       0.30
      6.32       0.35       0.19
      6.17      -0.34       0.30
      6.42      -0.43       0.70
      6.79      -0.17       0.63
      6.91      -0.28      -0.02
      6.47       0.35       0.06
      6.47       0.57       0.08
      7.05       0.29      -0.28
      7.53      -0.46      -0.04
      7.73      -0.17       0.67
      8.05       0.12       0.06
      7.34      -0.41      -0.06
      6.67      -0.14       0.34
      6.23      -0.51       0.32
      7.05      -0.41       0.42
      7.09      -0.32       0.40
      6.90       0.05       0.41
      7.23       0.26       0.47
      7.44       0.09      -0.01
      8.37       0.35      -0.73
      8.24       0.32      -0.25
      7.87       0.55       0.06
      7.69       0.53      -0.14
      7.59       0.40      -0.45
      7.34       0.57      -0.10
      7.16       0.38      -0.39
      6.95       0.43      -0.18
      7.41      -0.06      -0.28
      6.86       0.07       0.11
      7.28      -0.23       0.33
      7.70      -0.18       0.32
      7.94      -0.30      -0.05
      8.16      -0.18      -0.13
      8.00       0.01      -0.60
      8.32      -0.07      -0.77
      8.50      -0.08      -0.91
      8.04       0.07      -1.07
      8.45      -0.16      -0.42
      8.38      -0.38      -0.70
      8.39      -0.32      -0.55
      7.91      -0.20       0.26
      7.00       0.41       0.38
      7.27      -0.62      -0.75
      7.24      -1.07       0.06
      7.34      -0.35       0.20
      7.10      -0.28      -0.22
      7.27       0.19       0.18
      7.06       0.08       0.39
      6.68       0.30      -0.04
      6.99      -0.35      -0.38
      7.10      -0.26       0.30
      7.16      -0.58       0.62
      7.13      -0.02       0.34
      6.91       0.03       0.95
      7.93      -0.88       0.38
      7.99      -0.81      -0.24
      8.07      -0.61      -0.23
      8.43      -0.06       0.02
      8.44      -0.54      -0.40
      7.43      -0.12      -0.26
      7.81      -0.21      -0.41
      6.81      -0.08       0.52
      7.05      -0.29       1.15
      6.83      -0.23       0.56
      6.89      -0.64       0.41
      7.42      -0.13       0.65
      7.60       0.18      -0.24
      7.10       0.54      -0.05
      7.28       0.29       0.29
      7.39       0.44       0.30
      7.09       0.37      -0.01
      7.29       0.57      -0.21
      7.59       0.62      -0.24
      7.83       0.04      -0.36
      7.49       0.22      -0.09
      7.87       0.01      -0.32
      7.76      -0.21      -0.51
      8.30      -0.20       0.19
      7.96      -0.50       0.30
      7.28      -0.20       0.35
      7.93       0.35      -0.45
      7.82      -0.09      -0.37
      7.61       0.02       0.53
      7.75      -0.50      -0.46
      7.92      -0.32      -0.61
      8.29      -0.40      -0.81
      8.29      -0.04      -0.53
      8.41       0.02      -0.09
      8.76      -0.36       0.24
      7.88      -0.70      -0.36
      8.13      -0.14      -0.27
      7.43       0.01      -0.35
      7.16      -0.42       0.49
      7.30      -0.13       0.23
      7.33       0.32       0.18
      6.68       0.02       0.53
      7.37      -1.07       0.60
      7.67      -1.01       0.13
      8.00      -0.72       0.29
      7.91      -0.38       0.37
      7.81      -0.41       0.11
      7.46      -0.82      -0.17
      7.67      -0.65       0.31
      7.71      -1.12       0.15
      8.12      -0.14      -0.47
      8.53      -0.08      -0.61
      8.40       0.30      -0.78
      8.07      -0.22      -0.76
      7.87       0.10      -0.57
      7.48      -0.10       0.48
      7.46      -0.24       0.41
      7.25      -0.27       0.05
      7.28      -0.30       0.15
      7.24      -0.08       0.43
      7.71       0.11       0.54
      7.32       0.07       0.43
      7.41      -0.14       0.24
      7.68       0.07      -0.02
      8.04       0.14      -0.38
      8.22       0.11      -0.46
      8.27       0.41      -0.00
      7.72       0.12       0.13
      7.62       0.06      -0.08
      7.54      -0.18      -0.19
      8.09      -0.35       0.24
      8.69      -0.69       0.26
      7.44      -0.17       0.38
      7.61      -0.23      -0.37
      7.54       0.50       0.33
      7.97      -0.18      -0.51
      7.91      -0.27      -0.51