# vtk DataFile Version 3.0
Low resolution, disturbed wind of YZ Slice at time = 3 seconds.
ASCII
DATASET STRUCTURED_POINTS
DIMENSIONS     1    26    12
ORIGIN     748.00     635.00      15.00
SPACING      30.00      30.00      30.00
POINT_DATA             312
VECTORS DisYZ float
      5.94       0.30       0.29
      6.10       0.46       0.69
      5.86       0.96       0.18
      6.68       1.13      -0.31
      3.69       0.26       0.78
      3.64      -0.23       0.30
      7.27      -0.14      -0.34
      5.48       0.26       0.18
      6.84       0.48       0.47
      4.06       0.31       0.51
      3.77       0.19       0.52
      5.81       0.48      -0.02
      5.56       0.28      -0.16
      3.98      -0.21      -0.19
      5.77      -0.38      -0.33
      4.80      -0.54      -0.05
      5.13      -0.56      -0.50
      4.17       0.76       0.09
      5.52       0.48      -0.21
      5.87      -0.09      -0.06
      6.77      -0.71       0.12
      4.80       0.65       0.34
      5.08      -0.14       0.14
      5.42      -0.43       0.27
      6.32      -0.56       0.33
      7.03       0.22       0.00
      7.18       1.00       0.65
      7.18       0.44       0.12
      7.14       0.97       0.32
      7.03      -0.04      -0.09
      5.28      -0.38       0.61
      6.60      -0.15       0.02
      6.68       0.36      -0.17
      7.47       0.01       0.34
      6.88       0.25       0.79
      6.62       0.46       0.47
      7.07       0.21       0.25
      7.24      -0.28      -0.54
      6.36      -0.36      -0.09
      5.57      -0.23       0.11
      6.52       0.03      -0.32
      6.30      -0.67      -0.18
      7.58      -0.75      -0.77
      7.11      -0.41      -0.20
      6.15      -0.65       0.06
      6.15      -0.34       0.16
      7.20       0.04       0.01
      7.01      -0.32      -0.29
      7.97       0.11      -0.22
      6.35       0.15       0.21
      8.15       0.51       0.23
      8.96       0.25      -0.16
      7.88       0.33       0.87
      7.59       0.01      -0.02
      6.70      -0.62       0.21
      7.03      -0.41       0.21
      5.70      -0.30       0.32
      7.42       0.24      -0.39
      7.67      -0.39       0.21
      7.69      -0.21       0.00
      7.15       0.11       0.25
      7.32       0.29       0.61
      8.36       0.56       0.09
      7.32       0.17       0.20
      6.74      -0.18       0.22
      6.59      -0.46       0.07
      6.97      -0.57      -0.03
      6.93      -0.41       0.02
      8.06      -0.63      -0.68
      8.50      -0.76      -0.91
      7.41      -0.58      -0.28
      7.82      -0.54      -0.32
      7.55       0.38       0.06
      8.07      -0.15      -0.23
      8.76      -0.23      -0.04
      8.03       0.01      -0.19
      9.10      -0.13      -0.21
      8.37       0.53      -0.06
      9.12       0.97       0.60
      8.61       0.62       0.71
      8.26       0.58       0.20
      7.48       0.31       0.12
      7.48       0.48       0.30
      7.61       0.15      -0.26
      8.00      -0.45      -0.03
      8.02      -0.55      -0.06
      8.48      -0.51      -0.18
      8.59      -0.63       0.02
      8.21      -0.29      -0.26
      7.22      -0.27       0.32
      7.93      -0.59       0.22
      7.56      -0.80       0.03
      7.39      -0.36      -0.16
      7.36       0.28       0.18
      7.75      -0.50      -0.42
      8.38       0.15      -0.65
      8.59       0.16      -0.45
      8.62       0.33      -1.10
      8.95       0.82      -0.62
      8.68       0.35      -0.19
      8.81       0.41      -0.13
      9.71       0.47      -0.27
      9.23       0.50      -0.18
      8.45       0.15       0.02
      9.17      -0.01       0.98
      7.76       0.22       0.29
      8.03       0.31       0.20
      8.08       0.26       0.08
      7.67       0.02       0.08
      7.88      -0.44       0.01
      8.82      -0.87      -0.10
      8.52      -0.63      -0.55
      9.04      -0.59      -0.41
      8.91      -0.53      -0.26
      8.32      -0.48       0.14
      7.32      -0.15       0.62
      7.02      -0.08       0.35
      7.27      -0.44       0.08
      8.61      -0.75      -0.81
      7.73      -0.02      -0.22
      8.05       0.81      -0.63
      8.38      -0.05      -0.75
      8.59       0.57      -0.83
      8.97       0.14      -0.74
      9.12      -0.29      -0.71
      9.35      -0.06      -0.43
     10.36       0.14      -0.22
     10.09      -0.09       0.08
      9.61      -0.07      -0.64
      9.31       0.02      -0.15
      8.07       0.10       0.74
      8.17       0.34      -0.03
      8.43       0.63       0.12
      8.24       0.03       0.46
      8.26      -1.04       0.39
      7.82      -0.67       0.43
      8.17      -0.29      -0.02
      8.42      -0.25      -0.52
      8.92      -0.14      -0.76
      9.25      -0.10      -0.39
      9.13      -0.12       0.21
      7.82       0.42       0.75
      7.70       0.24       0.74
      7.60      -0.38       0.41
      8.96      -0.53      -0.76
      8.83      -0.68      -0.55
      9.35      -0.43      -0.68
      8.70      -0.30      -0.77
      8.93      -0.36      -0.56
      9.35      -0.48      -0.57
     10.33      -0.91      -0.23
      9.97      -0.21      -0.24
      9.88       0.01      -0.31
      9.90       0.08      -0.03
      9.87       0.43      -0.16
      8.81      -0.44       0.16
      8.17      -1.09      -0.33
      7.97      -0.66      -0.14
      8.14      -1.13       0.45
      8.11      -0.24       0.54
      8.73      -0.15      -0.26
      8.74       0.14       0.08
      8.48       0.31      -0.50
      9.00       0.31      -0.61
      9.52      -0.10      -0.52
      9.07      -0.02      -0.12
      8.97       0.06      -0.06
      9.19      -0.18       0.37
      8.46      -0.30       0.77
      7.91      -0.14       0.41
      8.76      -0.09      -0.45
      8.80      -0.68      -0.08
      9.68      -0.99      -0.61
      9.48      -0.94      -0.68
      9.51      -0.65      -0.75
      9.91      -0.78      -0.35
      9.89      -1.06      -0.52
     10.26      -0.62      -0.81
      9.81      -0.30      -0.84
      8.92      -0.24      -0.43
      9.09      -0.79       0.27
      8.82      -1.01       0.27
      9.02      -0.65      -1.21
      8.77      -0.55      -0.01
      8.39      -0.74      -0.24
      8.71      -0.15      -0.09
      8.72      -0.04      -0.25
      9.25      -0.02      -0.17
      9.60      -0.25      -0.37
     10.11      -0.35      -0.22
      9.14       0.07      -0.15
      8.59      -0.12       0.12
      8.68      -0.54       0.21
      8.69      -0.95       0.51
      8.52      -0.58       0.44
      8.75      -0.36       0.51
      9.05      -0.74      -0.03
      9.38      -0.97      -0.13
      9.64      -1.25      -0.33
      8.98      -1.01      -0.36
      9.54      -0.39      -0.00
     10.10      -0.82      -0.39
     10.10      -0.71      -0.51
     10.06      -1.07      -0.95
      9.73      -1.05      -1.18
      8.97      -1.40      -0.41
      8.81      -0.86       0.03
      8.82      -1.18       0.24
      9.17      -0.31      -0.91
      9.66      -0.44      -0.30
      9.36      -0.90      -0.57
      9.55      -0.61      -0.39
      9.54      -0.46      -0.16
      9.59      -0.44      -0.53
      9.21      -0.22      -0.60
      9.68      -0.20      -0.32
      8.81      -0.21       0.01
      8.93      -0.38      -0.03
      8.89      -0.72       0.35
      8.93      -0.38       0.15
      9.07      -0.91       0.42
      9.49      -0.81      -0.11
      9.07      -0.66      -0.31
      9.34      -1.16      -0.02
      9.87      -1.44      -0.48
      9.82      -0.90      -0.56
      9.75      -1.13      -0.50
     10.09      -0.85      -0.32
      9.88      -1.27      -0.52
     10.46      -1.00      -0.64
     10.13      -0.94      -0.54
      9.73      -0.96      -0.29
      8.63      -0.91      -0.21
      8.69      -0.64       0.08
      8.89      -0.03      -0.50
      9.90       0.14      -0.52
      9.10       0.11      -0.37
      9.71      -0.02      -0.37
      9.57      -0.31      -0.47
      9.55      -0.43      -0.48
      9.44      -0.51      -0.57
      8.91      -0.47       0.08
      9.18      -0.54      -0.04
      9.21      -0.59       0.05
      9.11      -0.46       0.28
      8.86      -0.28       0.09
      9.34      -0.41       0.30
      9.58      -0.74      -0.18
      9.20      -0.91       0.23
      9.64      -1.48      -0.35
      9.45      -1.06      -0.42
      9.82      -1.24      -0.57
      9.92      -1.27      -0.68
      9.53      -1.26      -0.39
      9.84      -1.17      -0.37
     10.74      -0.82      -0.76
     10.30      -1.27      -0.63
      8.70      -1.15      -0.23
      8.78      -1.34       0.11
      9.15      -1.30       0.43
      9.87      -0.09      -0.38
      9.56       0.16      -0.32
     10.06       0.14      -0.57
      9.64       0.35      -0.47
      9.22      -0.11      -0.37
      9.85       0.02      -0.30
      9.68      -0.49      -0.20
      9.16      -0.37       0.16
      9.90      -0.48       0.09
      9.71      -0.34       0.30
      9.80      -0.30       0.10
      9.38      -0.02       0.18
      9.45       0.00       0.56
      9.20       0.24       0.41
      9.29      -0.07       0.27
      9.04      -0.46      -0.11
      9.85      -1.58      -0.26
     10.33      -1.41      -0.40
     10.48      -1.12      -0.63
     10.32      -1.26      -0.41
      9.71      -0.96      -0.39
     10.85      -0.95      -0.83
     11.28      -0.86      -0.77
      9.44      -1.04       0.10
      9.15      -1.28       0.34
      9.27      -0.61       0.29
     10.10      -0.46      -0.42
     10.42      -0.37      -0.69
      9.76      -0.13      -0.59
      9.21      -0.13      -0.39
     10.01      -0.04      -0.23
      9.87       0.12      -0.21
      9.89      -0.01      -0.00
      9.24       0.14       0.33
      9.28       0.30       0.46
      9.63       0.11       0.07
     10.03      -0.13       0.38
      8.96      -0.12       0.29
      9.15       0.24       0.56
      9.23       0.16       0.41
      9.22      -0.01       0.30
      9.32      -0.77       0.44
      9.00      -0.77      -0.19
      9.86      -1.15      -0.63
     10.20      -1.05      -0.89
     10.47      -0.94      -0.56
     10.38      -0.98      -0.35
     10.23      -1.00      -0.39
     10.89      -1.00      -0.74
      9.69      -1.01       0.19
      8.74      -0.94       0.43
      9.77      -0.76       0.34
