# vtk DataFile Version 3.0
Low resolution, disturbed wind of YZ Slice at time = 9 seconds.
ASCII
DATASET STRUCTURED_POINTS
DIMENSIONS     1    26    12
ORIGIN    1630.00     635.00      15.00
SPACING      30.00      30.00      30.00
POINT_DATA             312
VECTORS DisYZ float
      5.70       0.20       0.01
      3.33      -0.27       0.98
      6.63      -0.45      -0.37
      7.11       0.21      -0.51
      5.37       0.35       0.07
      5.75       0.30      -0.02
      5.99       0.41      -0.02
      4.55       0.38       0.16
      5.35       0.01      -0.56
      3.56       0.30       0.51
      4.67       0.37      -0.21
      4.67       1.37       0.01
      5.73       0.83      -0.32
      5.69       0.38       0.09
      4.12       0.38      -0.01
      4.45      -0.21       0.43
      4.20       0.38       0.43
      5.58      -0.00       0.03
      6.07       0.66      -0.10
      5.71       0.23      -0.60
      7.44      -0.63      -0.17
      6.88       0.67      -0.35
      6.59       1.53       0.15
      5.54       1.00      -0.29
      4.98       0.98       0.35
      7.34       0.84      -0.07
      6.14       0.58      -0.07
      6.54      -0.21       0.99
      6.28      -0.03      -0.12
      7.27      -0.44      -0.46
      6.90       0.10      -0.14
      6.36       0.67       0.10
      6.19       0.26       0.04
      6.51       0.08      -0.63
      7.00       0.43      -0.37
      6.29       1.01      -0.33
      7.14      -0.04      -0.75
      6.41       1.21      -0.02
      6.93      -0.27      -0.33
      5.69      -0.67       0.84
      7.31      -0.25      -0.51
      7.51       1.25      -0.23
      6.37       0.53       0.41
      6.38       0.21      -0.03
      6.70       0.41       0.54
      7.04       0.13       0.20
      8.18       0.49      -0.08
      8.60       0.69      -0.57
      6.49       0.03       0.38
      7.66       0.74       0.01
      7.70      -0.01       0.30
      7.39       0.00       0.44
      6.51      -0.66       0.34
      6.78      -0.48       1.09
      6.68      -0.41       0.28
      7.70       0.56      -0.04
      7.90      -0.16      -0.68
      6.72      -0.05      -0.26
      6.82       0.31      -0.06
      7.96       0.18      -0.09
      8.24       0.04      -0.52
      7.95       0.14      -0.16
      6.99       0.11      -0.55
      6.39      -0.58       0.12
      7.25      -0.40      -0.93
      6.71      -0.79       0.10
      7.15       0.35      -0.26
      7.85      -0.03      -0.39
      6.96      -0.01       0.45
      6.96      -0.51       0.35
      7.16      -0.33       0.21
      7.50       0.15      -0.42
      8.50       0.34      -0.29
      8.12       0.26      -0.31
      7.69       0.29       0.48
      7.93       0.08      -0.12
      8.56      -0.04       0.41
      8.81      -0.31       0.46
      6.62      -0.32       0.73
      7.47      -0.20       0.44
      7.57      -0.11       0.07
      7.71      -0.27       0.23
      8.19       0.15      -0.22
      7.71       0.04      -0.09
      8.21      -0.25       0.10
      8.71       0.05      -0.26
      7.32      -0.05      -0.20
      7.66      -0.28       0.13
      7.14       0.22       0.75
      6.84      -0.47      -0.11
      8.27      -0.43      -0.33
      8.06      -0.50       0.12
      8.33      -0.13      -0.49
      8.26       0.34      -0.63
      7.77       1.03       0.40
      7.07      -0.30       0.54
      7.66      -0.20       0.01
      8.57      -0.22      -0.32
      8.33       0.11      -0.39
      7.76       0.04       0.36
      7.79      -0.20       0.44
      8.62      -0.17       0.62
      8.74      -0.65       0.00
      8.91      -0.31       0.34
      7.12      -0.03       0.64
      8.62       0.35       0.35
      8.47       0.50       0.10
      7.95       0.40      -0.02
      8.85       0.31      -0.15
      7.99       0.14       0.38
      7.97       0.31       0.41
      8.55      -0.16      -0.01
      8.81      -0.54       0.09
      8.63      -0.50      -0.49
      8.66      -0.25      -0.26
      7.72       0.01      -0.02
      7.76      -0.25       0.23
      8.49      -0.34       0.31
      8.97      -0.16      -0.80
      8.96      -0.80      -0.41
      8.16      -0.55      -0.11
      7.59      -0.99       1.06
      8.69      -0.27      -0.32
      8.67      -0.57      -0.15
      8.33      -0.21       0.04
      8.48      -0.07       0.02
      8.29      -0.09       0.45
      8.61      -0.07       0.65
      8.80       0.02       0.48
      8.89      -0.27       0.03
      9.07       0.11       0.40
      8.42       0.23       0.47
      8.03       0.31       0.36
      8.36       0.43       0.20
      8.22       0.50       0.38
      8.35       0.11       0.33
      8.35       0.20       0.30
      9.23      -0.03       0.09
      8.69      -0.15       0.14
      9.05      -0.51      -0.34
      8.84      -0.62      -0.17
      8.59      -0.62      -0.19
      7.92      -0.65       0.28
      8.41      -0.47       0.31
      8.93      -0.32      -0.15
      9.25      -1.39      -0.34
      9.14      -0.98      -0.43
      8.77      -0.01       0.11
      9.09      -0.29       0.66
      9.16      -0.54      -0.06
      8.99      -0.82      -0.16
      9.25      -0.61      -0.03
      8.91      -0.28       0.05
      8.89       0.13       0.36
      9.00       0.09       0.39
      9.23      -0.69       0.66
      9.23      -0.22       0.69
      8.69      -0.15       0.33
      8.65       0.41       0.15
      8.50       0.37       0.40
      8.91       0.64       0.30
      8.80       0.80       0.40
      8.45       0.52       0.49
      8.82       0.36       0.74
      8.43       0.03       0.19
      9.63      -0.42       0.27
      8.98      -0.46      -0.41
      8.70      -0.56      -0.01
      8.95      -0.65      -0.02
      9.04      -0.64       0.03
      9.50      -0.69      -0.01
      9.30      -0.37      -0.36
      9.34      -0.41      -0.52
      9.24      -0.65      -0.15
      9.39      -0.37       0.35
      9.61      -0.42      -0.08
      9.37      -0.64      -0.00
      9.37      -0.77      -0.21
      9.01      -0.86       0.00
      8.93      -0.33       0.36
      9.38      -0.37       0.72
      9.14      -0.42       0.41
      8.87      -0.50       0.22
      8.95      -0.56       0.14
      8.63      -0.14       0.28
      9.21      -0.43       0.18
      8.44       0.32       0.30
      8.51       0.47       0.78
      8.63       0.22       0.85
      8.39       0.69       0.78
      8.47       0.75       0.74
      9.39       0.34       0.25
      8.74      -0.68      -0.25
      8.80      -0.78      -0.02
      9.30      -0.38      -0.07
      8.90      -0.45      -0.12
      9.78      -0.21      -0.51
     10.24      -0.10      -0.41
      9.75      -0.39      -0.25
      9.48      -0.80      -0.16
      9.14      -0.79      -0.04
      9.72      -0.50       0.11
      9.31      -0.74       0.09
      9.52      -0.89      -0.04
      9.01      -0.42      -0.17
      9.09      -1.13       0.38
      9.15      -0.83       0.65
      9.07      -0.92      -0.10
      8.93      -0.21       0.59
      9.03      -0.51       0.33
      9.12      -0.31       0.31
      9.23      -0.24       0.40
      8.82      -0.06       0.52
      8.56       0.05       0.68
      7.99       0.52       1.40
      8.30       0.45       1.08
      8.69       0.23       0.47
      8.81       0.41       0.26
      9.04      -0.74       0.02
      9.45      -0.59      -0.14
      8.98      -0.67      -0.12
     10.07      -0.27      -0.68
      9.90      -0.49      -0.33
      9.75      -0.56      -0.23
      9.81      -0.49      -0.26
      9.93      -0.64      -0.18
      9.37      -0.86       0.02
      9.14      -0.69       0.24
      9.17      -0.47       0.34
      9.63      -0.52      -0.13
      9.53      -0.87       0.08
      9.27      -0.58       0.15
      9.40      -0.84       0.05
     10.15      -0.14      -0.88
      8.66      -0.26       0.88
      9.21      -0.69       0.62
      8.74      -0.82       0.50
      9.47      -0.63       0.46
      9.30      -0.46       0.09
      8.63      -0.46       0.84
      9.57      -0.07       0.51
      9.26       0.13       0.57
      8.89      -0.04       0.61
      9.21      -0.54       0.44
      9.76      -0.34       0.36
      9.69      -0.40       0.04
      9.85      -0.21      -0.30
     10.25      -0.48      -0.39
      9.98      -0.48      -0.23
      9.70      -0.74      -0.26
      9.33      -1.04      -0.17
      9.55      -0.66      -0.30
      9.06      -0.78       0.38
      9.36      -0.94       0.23
      9.19      -0.87       0.33
      9.63      -0.90       0.21
      9.60      -0.64       0.29
      9.85      -0.35      -0.03
      9.55      -0.39      -0.31
     10.15      -0.60      -0.43
      8.92      -0.90       0.92
      9.10      -0.64       0.66
      9.08      -0.26       0.30
      9.64      -0.38      -0.10
      9.16      -0.44       0.43
      9.93      -0.26       0.32
      9.73       0.08       0.21
      9.44      -0.36       0.46
      9.10      -0.82       0.62
      9.87      -0.62       0.08
      9.56      -0.48       0.44
      9.98      -0.25       0.07
     10.50      -0.65      -0.25
      9.99      -0.46      -0.10
     10.09      -0.76      -0.01
      9.48      -0.65      -0.17
      9.68      -0.80      -0.35
      9.92      -0.47      -0.06
      9.82      -0.59       0.12
      9.53      -0.50       0.13
      9.49      -0.52       0.31
      9.66      -0.60       0.12
      9.82      -0.43       0.24
      9.81      -0.37      -0.03
     10.44      -0.44      -0.52
      9.83      -1.38      -0.42
      9.13      -0.66       0.73
      9.37      -0.41       0.46
      9.75      -0.32       0.32
      9.70      -0.73       0.29
     10.31      -0.83       0.27
      9.81      -0.38       0.18
      9.25      -0.45       0.21
     10.06      -0.41       0.47
      9.14      -0.63       1.00
      8.97      -0.79       0.16
      9.67      -0.43       0.30
      9.79      -0.46       0.08
     10.24      -0.66      -0.28
     10.10      -0.73      -0.08
      9.56      -1.06       0.01
      9.75      -1.08      -0.08
     10.00      -0.79      -0.20
     10.01      -0.79       0.18
      9.71      -0.73       0.19
      9.83      -0.69       0.10
     10.12      -0.87      -0.32
     10.27      -0.60       0.16
      9.72      -0.56       0.35
     10.38      -1.10      -0.08
     10.56      -0.81      -0.56
     10.82      -0.90      -0.32
