# vtk DataFile Version 3.0
Low resolution, disturbed wind of XZ Slice at time = 12 seconds.
ASCII
DATASET STRUCTURED_POINTS
DIMENSIONS    47     1    12
ORIGIN     635.00    1000.00      15.00
SPACING      30.00      30.00      30.00
POINT_DATA             564
VECTORS DisXZ float
      4.24      -1.01      -0.08
      4.17      -0.20      -0.06
      4.91      -0.06       0.05
      4.55      -0.10      -0.17
      4.83       0.78       0.03
      5.06       0.51      -0.04
      4.60       0.18       0.01
      4.63       0.52       0.31
      5.55       0.09       0.00
      5.75       0.27      -0.51
      5.80       0.94      -0.09
      6.28       0.84      -0.62
      5.26      -0.14      -0.17
      5.67       0.05      -0.62
      4.47      -1.13       0.90
      4.87       0.79       0.58
      3.00      -0.98       0.70
      4.02       0.92       0.30
      5.03       0.35      -0.38
      4.65      -0.14       0.27
      4.55      -0.59       0.08
      3.75       0.13       0.54
      3.19      -0.36       0.26
      4.86       0.79      -0.42
      4.11       0.11       0.05
      4.61      -0.09       0.00
      5.32       1.10      -0.35
      4.32       0.42      -0.56
      4.39      -0.11       0.32
      4.58       0.40       0.08
      4.50      -0.90      -0.25
      4.78       0.54      -0.13
      4.85       0.53      -0.29
      5.21       0.36      -0.40
      5.88       0.85      -0.04
      6.14       0.55      -0.30
      5.17      -0.81       0.51
      4.29       0.89       0.38
      5.60      -0.09       0.08
      4.43       0.39       0.27
      5.40       0.09      -0.77
      5.34       0.06       0.07
      4.90      -0.21       0.86
      6.15      -0.36      -0.26
      3.97      -0.07       0.19
      5.62       0.46       0.29
      4.82       0.28       0.26
      6.00       0.25      -0.02
      6.10       0.84      -0.03
      6.37       0.22      -0.13
      6.11      -0.09      -0.07
      6.23       0.20      -0.28
      6.60       0.15      -0.15
      5.59      -0.67      -0.14
      5.93      -0.28       0.24
      6.48       0.17       0.11
      6.73       0.05       0.01
      6.99       0.33      -0.00
      6.75       0.74       0.05
      2.96       0.15       0.48
      3.02      -0.25       0.04
      1.61      -0.18       1.46
      2.33      -1.08       0.67
      7.30      -0.38      -0.31
      6.59      -0.76       0.40
      7.22      -0.58       0.02
      6.96      -0.24      -0.36
      6.70      -0.09       0.18
      6.07      -0.64      -0.22
      5.84       0.12      -0.30
      5.78       0.51      -0.10
      6.86       0.40       0.48
      6.24       0.54       0.38
      5.77       0.60       0.05
      6.11       0.70       0.00
      6.46      -0.07       0.31
      5.95       0.11       0.32
      6.64       0.25       0.15
      6.12       0.44       0.07
      5.53       0.39      -0.14
      6.39      -0.40      -0.43
      7.05      -0.39      -0.17
      7.64       0.00      -0.73
      6.73       0.85      -0.13
      6.69       0.27      -0.56
      5.65       0.58       0.90
      5.55       0.23       0.51
      6.50      -0.00      -0.43
      6.74       0.45      -0.58
      5.91      -0.03      -0.22
      5.74      -0.31       0.64
      5.78       0.02       0.17
      7.02       0.35      -0.07
      6.06       0.62       0.05
      6.52       0.33       0.24
      6.78       0.29      -0.18
      6.91       0.51       0.11
      6.44       0.27       0.13
      6.80      -0.20       0.15
      6.69      -0.26       0.35
      6.67      -0.17       0.18
      6.43      -0.30       0.11
      6.85       0.04       0.29
      7.09       0.21       0.30
      6.95       0.29       0.44
      7.09       0.38       0.33
      3.86       0.31       0.68
      4.10       0.35       0.27
      4.23      -0.48       0.64
      4.54      -0.36       0.88
      7.94       0.19       0.26
      7.31      -0.13       0.39
      7.64      -0.61      -0.02
      7.58      -0.08      -0.16
      7.48      -0.56       0.10
      6.98      -0.56       0.05
      7.33       0.26      -0.47
      6.68       0.18       0.32
      6.02       0.61       0.52
      7.09      -0.02       0.11
      6.97      -0.02       0.09
      7.37      -0.55       0.47
      7.31       0.32       0.15
      7.33       0.52       0.03
      6.60       0.31      -0.08
      6.11       0.04       0.44
      6.68       0.25       0.47
      6.85      -0.27      -0.14
      7.25      -0.51      -0.78
      7.29      -0.75      -0.92
      6.75       0.51       0.26
      7.13       0.97      -0.48
      6.73       0.45       0.09
      6.69       0.64      -0.26
      7.81       0.24      -0.57
      7.35      -0.40      -0.77
      7.66       0.19      -0.62
      6.67      -0.41       0.56
      6.64       0.05       0.12
      6.66      -0.40      -0.15
      5.97      -0.08      -0.03
      7.67       0.51       0.19
      6.29       0.24       0.24
      6.19      -0.20       0.11
      6.24       0.19       0.44
      7.00      -0.01       0.43
      7.38      -0.35       0.22
      7.80      -0.66       0.10
      7.62      -0.56       0.20
      7.21      -0.81       0.37
      7.10      -0.53       0.44
      7.14       0.17       0.62
      7.42       0.42       0.25
      7.54       0.51       0.40
      4.69       0.61       0.40
      4.70       0.87       0.43
      4.83       1.24       0.38
      7.96       0.86      -0.08
      8.24       0.48       0.08
      8.15       0.20       0.51
      8.08       0.07       0.23
      8.24      -0.11      -0.04
      8.51      -0.13       0.04
      8.28      -0.17      -0.09
      8.00       0.47       0.30
      7.58       0.16       0.23
      7.62      -0.28       0.55
      8.02      -0.26      -0.20
      7.94       0.24      -0.28
      8.34      -0.01       0.04
      8.44       0.28       0.10
      6.98      -0.06      -0.58
      7.19       0.31       0.65
      8.11      -0.06      -0.28
      8.26      -0.36      -0.11
      8.20      -0.46      -0.35
      7.15      -0.44      -0.34
      7.33      -0.68       0.21
      8.29      -0.35      -0.40
      7.81      -0.27      -0.28
      7.74       0.15       0.11
      7.91       0.37       0.11
      8.31       0.29      -0.44
      8.29      -0.21      -0.52
      9.28      -0.21      -0.26
      7.74       0.11       0.20
      7.63       0.20      -0.05
      7.80      -0.23      -0.27
      6.81      -0.26       0.71
      6.46      -0.24       0.13
      6.72      -0.10      -0.15
      7.21      -0.20      -0.01
      7.53      -0.20       0.45
      7.28      -0.33       0.24
      7.21      -0.30       0.37
      7.23      -0.42       0.29
      7.00      -0.26       0.59
      7.14       0.03       0.49
      7.49       0.14       0.28
      7.61      -0.08       0.35
      7.90      -0.20       0.40
      3.67      -0.16       0.58
      3.70       0.17       0.41
      4.10       0.26       0.44
      8.64       0.77      -0.03
      8.57       0.47       0.16
      8.30       0.63       0.43
      8.55       0.00       0.24
      8.51      -0.14      -0.19
      8.51       0.12       0.11
      8.13       0.16       0.07
      8.08       0.07       0.31
      8.34       0.00       0.19
      8.50      -0.17      -0.19
      8.98       0.10      -0.02
      8.34      -0.10       0.08
      7.87      -0.24       0.11
      7.86       0.01       0.39
      7.46      -0.16       0.45
      7.76      -0.75       0.21
      7.77      -0.66       0.27
      7.88      -0.29       0.21
      7.95      -0.31       0.30
      8.36      -0.36       0.32
      8.24      -0.90      -0.00
      8.50      -1.14       0.04
      8.47      -0.46       0.21
      8.56      -0.13      -0.05
      8.58      -0.40      -0.41
      8.84      -0.04       0.01
      9.16      -0.17      -0.09
      8.45      -0.66       0.11
      7.66      -0.14       0.62
      7.67       0.11       0.34
      7.97       0.05      -0.35
      7.79       0.31       0.22
      7.91       0.22      -0.19
      8.11       0.28      -0.69
      8.12       0.48      -0.72
      7.53      -0.05       0.12
      7.23      -0.07       0.69
      7.60       0.11       0.61
      7.99       0.08       0.59
      8.18       0.06       0.38
      8.08       0.07       0.24
      8.26       0.21       0.03
      8.42      -0.00      -0.17
      7.81       0.13       0.32
      6.24      -0.05       0.07
      6.88      -0.26       0.09
      7.40      -0.11      -0.15
      8.23       0.85       0.20
      8.28       0.89       0.67
      8.41       0.09       0.70
      8.66       0.02       0.07
      8.62       0.10       0.06
      8.88      -0.17       0.04
      9.11      -0.23       0.00
      8.60       0.10       0.17
      8.98       0.53      -0.18
      8.79       0.31      -0.45
      8.54      -0.30      -0.02
      8.36      -0.25       0.31
      8.49       0.14       0.14
      8.01       0.06       0.49
      7.83       0.00       0.25
      7.70      -0.23       0.40
      7.95      -0.81       0.61
      8.53      -1.03       0.40
      7.94      -0.59       0.25
      7.99      -0.52       0.28
      8.27      -0.65       0.27
      8.46      -0.62       0.26
      8.67      -0.47       0.27
      8.83      -0.28       0.10
      9.14      -0.36       0.08
      8.95      -0.21      -0.26
      8.70       0.15      -0.45
      8.62      -0.01       0.40
      8.01      -0.13       0.52
      8.39       0.09       0.08
      8.54      -0.01      -0.31
      9.03      -0.63      -0.44
      8.51      -0.70      -0.42
      8.71      -0.22      -0.77
      8.55       0.37      -0.36
      8.75      -0.37      -0.10
      8.69      -0.26       0.35
      8.36      -0.25       0.62
      8.08      -0.14       0.85
      8.49      -0.26       0.40
      8.49      -0.72      -0.01
      8.55      -0.85      -0.34
      8.71      -0.94       0.08
      8.73       0.07       0.10
      8.47       0.00      -0.29
      9.12       0.26      -0.34
      9.26       0.27      -0.44
      9.51       0.24       0.02
      9.37       0.42       0.56
      9.44       0.93       0.51
      9.69       0.15       0.13
      9.36      -0.25       0.00
      9.12      -0.14       0.08
      9.04      -0.35       0.13
      8.69      -0.44       0.02
      9.06      -0.44      -0.34
      9.23      -0.08      -0.37
      8.73       0.07       0.50
      8.62      -0.15       0.32
      8.62      -0.06      -0.06
      9.11      -0.07       0.23
      9.44       0.19       0.37
      8.48       0.05       0.63
      8.50      -0.10       0.03
      8.73      -0.70      -0.19
      8.96      -0.66      -0.02
      9.05      -0.43       0.10
      8.91      -0.53       0.05
      8.68      -0.74       0.09
      8.66      -0.85       0.25
      9.22      -0.80       0.21
      9.69      -0.99      -0.05
      9.44      -0.65       0.07
      9.62      -0.22      -0.02
      9.23      -0.41       0.82
      9.45       0.19       0.39
      9.40       0.42       0.05
      9.75      -0.27      -0.64
      9.29      -0.99      -0.24
      9.27      -1.12      -0.16
      8.65      -0.20       0.02
      8.57       0.04       0.24
      8.55      -0.66       0.33
      8.25      -0.86       0.35
      8.29      -0.52       0.42
      8.59      -0.37       0.58
      9.32      -0.59       0.63
      9.91      -0.47       0.06
      9.36      -0.56       0.13
      8.93      -1.15       0.59
      8.40      -1.73       0.19
      8.41      -1.28      -0.36
      8.15      -1.02      -0.45
      8.21      -0.94      -0.49
      8.65      -0.52      -0.04
      8.91      -0.19       0.57
      9.06      -0.44       0.66
      9.26      -0.33       0.34
      9.04      -0.16       0.40
      8.73      -0.54       0.34
      8.81      -0.88       0.30
      8.93      -0.91      -0.13
      8.99      -0.82      -0.44
      9.23      -0.25      -0.27
      9.29      -0.13       0.06
      9.67      -0.34       0.17
      9.85       0.06      -0.10
      9.50      -0.13      -0.07
      8.91      -0.13       0.50
      9.10       0.11       0.41
      9.28       0.14      -0.07
      9.33      -0.32      -0.40
      9.21      -0.31      -0.08
      8.90      -0.45       0.18
      9.42      -0.86       0.07
      9.84      -1.36      -0.28
      9.50      -1.10      -0.03
      9.17      -0.63       0.31
      9.20      -0.72       0.22
      9.46      -0.82       0.29
      9.67      -0.62       0.49
      9.49      -0.23       0.71
      9.91       0.29       0.35
     10.01       0.09      -0.03
      9.38      -0.20      -0.36
      9.34      -0.37       0.11
      9.24      -0.03       0.12
      9.20      -0.34       0.09
      8.76      -0.38       0.28
      9.00      -0.42       0.60
      9.11      -0.65       0.33
      8.96      -0.82       0.31
      9.01      -0.88       0.43
      9.43      -0.49       0.19
     10.40      -0.75       0.12
     10.05      -0.78       0.62
      8.40      -0.77       0.77
      7.93      -0.72       0.72
      8.25      -1.02       0.16
      8.82      -1.11      -0.25
      8.94      -0.92      -0.12
      8.72      -1.11      -0.04
      8.74      -1.01       0.01
      8.68      -0.90       0.30
      8.68      -1.07       0.35
      8.77      -1.06       0.36
      8.88      -1.08       0.51
      9.24      -1.22       0.14
      9.17      -1.09      -0.32
      8.82      -0.80      -0.35
      8.61      -0.82      -0.22
      8.65      -0.72      -0.23
      8.95      -0.24      -0.06
      9.45       0.19      -0.04
      9.28       0.13       0.02
      8.94      -0.03       0.07
      9.16      -0.15      -0.02
      9.35      -0.24      -0.15
      9.27      -0.31      -0.19
      9.12      -0.60      -0.24
      9.40      -0.55      -0.24
      9.59      -0.54      -0.07
      9.51      -0.86      -0.03
      9.63      -0.92      -0.04
      9.80      -0.68      -0.27
      9.73      -0.69      -0.63
      9.80      -0.84      -0.11
      9.96      -0.96       0.42
      9.82      -0.99       0.29
      9.83      -0.76       0.09
     10.07      -0.92      -0.12
     10.02      -1.03      -0.33
      9.01      -0.22       0.32
      9.26      -0.78       0.29
      9.15      -0.82       0.12
      8.85      -0.50       0.29
      9.10      -0.51       0.53
      9.29      -0.84       0.56
      9.31      -0.74       0.39
      9.26      -0.33       0.01
      9.04      -0.63       0.09
      8.51      -0.97       0.63
      8.53      -0.51       0.97
      8.95       0.07       0.56
      9.33      -0.13       0.22
      9.35      -0.30       0.06
      9.42      -0.37       0.14
      9.47      -0.49       0.14
      9.43      -0.56       0.05
      9.26      -1.03       0.16
      9.07      -1.10       0.18
      9.18      -1.08       0.13
      9.50      -1.13       0.48
     10.28      -0.95       0.53
     10.63      -1.42       0.17
      9.90      -1.15       0.13
      9.39      -0.99      -0.20
      9.11      -1.02      -0.36
      8.99      -0.62      -0.11
      8.80      -0.31      -0.17
      8.84      -0.17      -0.15
      9.20      -0.01       0.11
      9.36       0.06       0.17
      9.31      -0.03       0.23
      9.43      -0.27       0.25
      9.78      -0.45      -0.05
      9.95      -0.22      -0.36
      9.91      -0.32      -0.20
      9.84      -0.67      -0.08
      9.88      -0.87      -0.15
      9.95      -0.85      -0.22
     10.18      -0.68      -0.21
     10.17      -0.42      -0.16
     10.09      -0.35      -0.33
     10.44      -0.69      -0.26
     10.31      -0.86      -0.26
     10.02      -0.87      -0.20
     10.21      -0.94      -0.21
     10.28      -0.54      -0.51
      9.14      -0.41       0.35
      9.04      -0.47       0.51
      9.20      -0.46       0.55
      9.10      -0.56       0.41
      8.93      -0.78       0.48
      9.19      -0.56       0.74
      9.68      -0.09       0.68
      9.38       0.06       0.41
      8.81      -0.46       0.35
      8.87      -0.80       0.63
      9.45      -0.65       0.50
      9.81      -0.34       0.20
      9.95      -0.24       0.09
     10.05      -0.55       0.15
      9.95      -0.62       0.01
      9.94      -0.48       0.21
      9.75      -0.78       0.38
      9.42      -0.88       0.26
      9.52      -0.94       0.17
      9.95      -1.06      -0.01
      9.58      -0.88       0.15
      9.47      -1.08       0.40
      9.47      -1.23       0.53
      9.64      -1.00       0.35
      9.79      -0.81      -0.03
      9.96      -0.82      -0.15
      9.92      -1.03       0.03
      9.52      -1.05      -0.47
      9.43      -1.00      -0.36
      9.30      -0.75       0.11
      9.10      -0.41       0.20
      9.14      -0.21       0.13
      9.44      -0.23      -0.04
      9.94      -0.40      -0.28
     10.46      -0.60      -0.28
     10.34      -0.69      -0.00
      9.90      -0.45       0.09
      9.93      -0.28       0.16
     10.19      -0.37      -0.06
     10.26      -0.63      -0.15
     10.24      -0.70      -0.14
     10.60      -0.59      -0.22
     10.35      -0.56      -0.08
     10.04      -0.71      -0.04
      9.88      -0.96       0.00
      9.69      -0.91      -0.16
      9.81      -0.86      -0.29
      9.29      -0.40       0.50
      9.35      -0.29       0.71
      9.39      -0.19       0.73
      9.55      -0.12       0.38
      9.41      -0.10       0.34
      9.25       0.02       0.63
      9.10       0.19       0.69
      9.09       0.16       0.41
      9.21       0.03       0.22
      9.30       0.10       0.19
      9.42       0.31       0.11
      9.73       0.44       0.16
      9.85       0.51       0.24
     10.15       0.22       0.13
      9.96       0.06      -0.17
      9.97      -0.40       0.08
     10.03      -0.64       0.30
      9.99      -0.63       0.30
      9.80      -0.61       0.22
      9.59      -0.90       0.15
      9.49      -1.00       0.31
      9.48      -1.06       0.16
      9.61      -1.12       0.01
      9.75      -1.33      -0.02
      9.78      -1.57      -0.13
     10.00      -1.34      -0.10
     10.11      -1.04      -0.01
      9.95      -0.90       0.04
      9.73      -0.79      -0.03
      9.58      -0.76      -0.02
      9.58      -0.81       0.08
      9.66      -0.82       0.08
      9.90      -0.73      -0.03
     10.17      -0.75      -0.24
     10.14      -0.70      -0.26
     10.23      -0.49      -0.19
     10.48      -0.48      -0.38
     10.41      -0.61      -0.26
     10.25      -0.74      -0.08
     10.15      -1.02      -0.17
     10.02      -1.03      -0.33
     10.15      -0.64      -0.25
     10.12      -0.75      -0.05
      9.99      -1.08       0.08
     10.00      -0.85       0.07
     10.06      -0.70      -0.05
     10.11      -0.77      -0.07
