# vtk DataFile Version 3.0
Low resolution, disturbed wind of XY Slice at time = 15 seconds.
ASCII
DATASET STRUCTURED_POINTS
DIMENSIONS    47    26     1
ORIGIN     635.00     635.00      85.00
SPACING      30.00      30.00      30.00
POINT_DATA            1222
VECTORS DisXY float
      9.10       0.70       0.08
      8.76       0.56       0.31
      8.81       0.80       0.38
      8.83       0.57       0.65
      9.45       1.02       0.52
      8.43       0.53       0.25
      8.16       0.32       0.67
      8.68       0.73       0.64
      8.23       0.79       0.81
      8.29       0.19       0.65
      8.57       0.13       0.52
      8.73       0.13      -0.09
      9.05       0.29      -0.27
      9.07       0.00      -0.23
      9.12       0.32      -0.05
      9.23       0.02       0.06
      8.58      -0.27      -0.15
      8.73       0.21      -0.34
      9.36       0.61      -0.37
      9.39       1.71      -0.07
      8.83       1.26      -0.03
      8.49       0.63       0.44
      8.34       0.19      -0.03
      8.47       0.62      -0.39
      8.22       0.26      -0.41
      8.42      -0.10       0.20
      8.32      -0.03      -0.15
      8.80      -0.41       0.38
      8.51       0.11      -0.28
      8.13       0.69       0.48
      7.04      -0.09       0.35
      8.08       0.35      -0.39
      7.34       0.15       0.41
      7.01      -0.30       0.60
      6.64      -0.57       0.42
      6.67      -0.44       0.54
      6.91       0.09       0.61
      6.64       0.51       0.23
      6.48      -0.10       0.18
      7.23       0.45       0.41
      6.94       0.25       0.54
      6.56      -0.27       0.25
      7.07       0.17       0.53
      7.56       0.55       0.50
      8.05       0.45      -0.14
      8.00       1.07       0.23
      7.43       0.50       0.25
      7.89       0.38      -0.13
      8.28       1.04      -0.12
      7.99       0.56       0.63
      7.97       0.50       0.75
      8.00       0.52       0.13
      8.04       0.42       0.17
      8.04       0.23       0.20
      7.85       0.46       0.46
      7.76       0.19       0.01
      7.75       0.28       0.03
      8.07       0.15      -0.17
      8.22       0.08       0.08
      8.28       0.25      -0.04
      7.45       0.22       0.35
      7.11       0.25       0.75
      8.08       0.10       0.14
      8.81      -0.23      -0.27
      8.84       0.46      -0.18
      8.86       0.41      -0.16
      9.08       0.71      -0.58
      9.14       0.88      -0.18
      8.77       0.62       0.13
      8.73       0.44      -0.25
      8.34       0.61      -0.35
      8.58       0.75      -0.05
      8.39       0.14       0.21
      8.17      -0.03       0.28
      8.22      -0.39       0.35
      8.08       0.38      -0.13
      8.20       1.18       0.19
      8.74       0.02      -0.34
      8.27       0.37       0.20
      7.97       0.88      -0.19
      8.17       0.25      -0.19
      7.43      -0.17       0.97
      7.30      -0.46       0.38
      7.22      -0.27      -0.32
      7.10       0.02      -0.17
      7.46      -0.49      -0.03
      7.68       0.63       0.09
      7.76       0.08       0.18
      7.25      -0.24       0.42
      6.91       0.05       1.10
      6.97       0.44       0.57
      7.17       0.60      -0.07
      7.39       0.84       0.14
      7.93       0.51       0.05
      7.32       0.24       0.48
      7.42       0.92       1.04
      7.85       0.79       0.79
      7.71       0.52       0.21
      7.05       0.36       0.04
      7.09       0.04       0.17
      7.41      -0.04       0.32
      7.25      -0.13       0.20
      7.20      -0.12       0.44
      7.38       0.10       0.21
      7.75       0.31       0.22
      8.53       0.26      -0.18
      8.26       0.37       0.23
      7.92       0.15       0.08
      8.21       0.02       0.06
      8.80       0.25      -0.32
      7.79      -0.04       0.12
      7.56      -0.11       0.15
      8.27       0.44       0.17
      8.26       0.55      -0.40
      8.59       0.45      -0.11
      8.33       0.66      -0.46
      8.23       1.04      -0.02
      8.23       0.06       0.39
      9.01       0.59       0.63
      8.77       0.27       0.52
      7.85       0.03       0.02
      7.55      -0.23      -0.21
      7.25       0.16       0.39
      7.67       0.54       0.59
      7.89       0.38      -0.23
      7.21       0.38       0.44
      7.65       0.73       0.08
      7.73       0.55       0.10
      7.12      -0.14       0.25
      6.92      -0.48       0.21
      6.86      -0.53       0.38
      7.13      -0.75       0.50
      7.58      -0.25      -0.11
      7.93       0.11      -0.55
      8.76      -0.23      -0.78
      7.72       0.47       0.08
      7.89       0.49       0.07
      7.72       0.13      -0.12
      7.63       0.61      -0.20
      7.73       1.07       0.19
      8.12       0.68       0.43
      6.26       0.17       0.90
      7.29       0.60       0.56
      7.58       0.32       0.62
      7.26       0.35      -0.07
      6.94      -0.01      -0.17
      6.89      -0.06       0.82
      7.09      -0.26       0.25
      7.29       0.07       0.31
      7.65       0.10       0.20
      8.06       0.26      -0.28
      7.86       0.16      -0.12
      7.63       0.49       0.18
      7.80       0.07      -0.77
      7.86       0.26      -0.14
      7.17      -0.36       0.03
      7.64      -0.03       0.20
      7.48       0.01       0.28
      7.14      -0.04       0.40
      7.50       0.10       0.58
      7.28       0.09       0.17
      7.59       0.39      -0.38
      7.56       0.16       0.51
      7.29       0.91       0.83
      6.99       0.58       0.78
      7.22       0.68       0.30
      7.58       0.50      -0.18
      8.03       0.24       0.19
      7.85       0.12      -0.21
      7.71       0.40      -0.44
      7.22       0.35       0.01
      7.24       1.08       0.48
      7.40       0.29       0.63
      7.10       0.28       0.29
      7.27       0.22       0.63
      7.72       0.33       0.32
      7.63       0.14       0.04
      7.16      -0.43       0.63
      7.24      -0.49       0.31
      7.73      -0.08      -0.23
      7.96      -0.27      -0.69
      8.35      -0.17      -0.41
      8.12       0.18      -0.24
      7.92       0.94       0.17
      7.82       0.67      -0.05
      7.77       0.36       0.16
      7.16       0.04       0.04
      6.24       0.88       0.50
      6.88       0.52       0.07
      7.49       0.47       0.17
      6.36       0.52       0.95
      6.56       0.18       0.38
      7.31       0.46      -0.10
      7.17       0.03      -0.39
      6.35      -0.48       0.31
      6.38       0.04       0.15
      6.79       0.25       0.49
      7.17       0.08       0.48
      6.98       0.52       0.39
      7.42       0.50      -0.15
      6.25       0.21       0.37
      5.92       0.21       0.43
      6.25      -0.09       0.43
      6.38      -0.63       0.65
      6.88      -0.76       0.21
      6.90      -0.00      -0.21
      7.34       0.36       0.18
      7.19       0.33       0.59
      7.23       0.36       0.23
      7.68       0.46       0.06
      7.02       0.57       0.97
      7.27       0.55       0.12
      7.20       0.48      -0.13
      6.95       0.60       0.22
      7.68       0.23      -0.20
      7.28      -0.04       0.06
      7.55       0.47       0.17
      7.45       0.76       0.24
      7.48       1.03      -0.11
      7.63       0.57       0.27
      7.48       0.20      -0.05
      7.98       0.35       0.21
      8.17      -0.00      -0.20
      8.15      -0.09      -0.29
      8.06      -0.12       0.06
      7.36       0.04       0.74
      7.04       0.30       0.90
      7.26       0.10       0.15
      7.23      -0.51       0.13
      6.97      -0.02      -0.19
      7.58       0.49      -0.70
      7.12       0.52       0.40
      7.19       0.46       0.44
      6.26       0.89       0.50
      6.86       0.77       0.43
      7.50       0.21      -0.00
      7.23       0.49       0.17
      7.34       0.90       0.30
      7.03       0.21       0.01
      6.86       0.34       0.20
      7.31       0.20      -0.07
      7.46       0.00      -0.42
      7.46       0.26      -0.37
      8.14       0.02      -0.61
      7.45      -0.12      -0.34
      6.99       0.32      -0.12
      6.52       0.45       0.26
      6.33       0.15       0.39
      6.59       0.15       0.27
      7.04      -0.02       0.17
      7.28      -0.09       0.31
      6.78      -0.42       0.49
      6.82      -0.11       0.63
      6.91       0.16       0.30
      7.04       0.57       0.23
      6.75       0.55       0.39
      6.54       0.54       0.86
      6.63       0.45       0.58
      6.92       0.13       0.60
      7.10       0.07       0.41
      7.46       0.01       0.16
      7.80      -0.07      -0.03
      7.49      -0.16      -0.17
      7.67      -0.10      -0.17
      7.65       0.52      -0.10
      7.67       1.08       0.08
      7.87       0.45      -0.32
      7.92       0.44      -0.14
      7.93      -0.05       0.03
      7.27      -0.08      -0.24
      7.08       0.09      -0.10
      7.14       0.20       0.04
      7.18       0.05       0.06
      7.70      -0.06      -0.32
      7.66      -0.13      -0.27
      6.99       0.22      -0.03
      6.73       0.12       0.41
      6.68       0.82       0.55
      6.63       0.53       0.41
      6.69       0.69       0.76
      6.85       0.55       0.52
      7.34       0.07       0.09
      7.02       0.39       0.06
      7.10       0.22       0.42
      7.37       0.90       0.27
      7.33       0.68      -0.15
      7.09       0.24       0.26
      7.44      -0.18       0.51
      7.68      -0.21       0.42
      7.89      -0.47       0.16
      8.32      -0.34      -0.17
      8.47       0.37      -0.33
      8.23       0.71      -0.72
      8.32       0.22      -0.75
      8.15      -0.05      -0.37
      7.98       0.13      -0.03
      8.19      -0.39      -0.16
      7.65      -0.10       0.26
      7.54      -0.02      -0.16
      7.81       0.05      -0.12
      7.88       0.21       0.34
      7.73       0.23       0.00
      7.40       0.28       0.19
      7.16       0.64       0.37
      7.04       0.37       0.21
      7.33       0.18       0.24
      7.70       0.39      -0.16
      7.97       0.23      -0.31
      7.90      -0.18      -0.55
      8.22      -0.36      -0.50
      8.00       0.20      -0.48
      7.74       0.34      -0.17
      7.86       0.68      -0.41
      7.81       0.29       0.02
      8.41       0.69       0.13
      7.18      -0.04       0.06
      7.36       0.11      -0.09
      7.14       0.24       0.04
      7.17       0.20      -0.12
      7.05      -0.17      -0.05
      7.25      -0.02       0.50
      7.33       0.02       0.05
      7.34       0.48       0.20
      7.25       0.24      -0.25
      7.08       0.38      -0.06
      7.05       0.47       0.23
      7.26       0.37       0.30
      7.41       0.33       0.26
      7.56       0.22       0.20
      7.92       0.06      -0.25
      7.35       0.40      -0.11
      7.30       1.08       0.01
      7.03       0.92      -0.01
      7.68      -0.51       0.45
      8.21      -0.38       0.05
      7.69      -0.99       0.12
      7.70      -0.25       0.04
      7.94      -0.13      -0.27
      8.05       0.34       0.23
      8.17       0.37       0.05
      8.64      -0.07      -0.37
      8.53      -0.04      -0.44
      8.44       0.53      -0.16
      8.45       0.10      -0.22
      7.98      -0.04       0.04
      7.29       0.12       0.11
      7.19      -0.27       0.51
      7.29       0.38       0.52
      7.53       0.69       0.12
      7.28      -0.00      -0.16
      7.06      -0.26       0.39
      7.54      -0.12       0.39
      7.49       0.15       0.28
      7.84       0.25      -0.10
      8.12       0.10       0.04
      7.61      -0.11      -0.29
      7.37      -0.13       0.24
      7.20       0.27      -0.36
      7.45       0.06      -0.41
      7.89       0.53       0.16
      7.40       0.36       0.15
      7.84       0.46       0.37
      7.90       0.04      -0.12
      7.94       0.15      -0.22
      8.34      -0.06      -0.38
      7.59       0.16      -0.08
      7.84      -0.45       0.00
      7.60       0.02      -0.56
      7.40       0.25       0.09
      7.40       0.42      -0.09
      7.45       0.35      -0.26
      7.53       0.29      -0.31
      7.84      -0.03      -0.13
      7.88       0.15      -0.14
      7.93       0.30      -0.24
      8.36       0.04      -0.35
      8.38       0.05       0.11
      8.81       0.16      -0.31
      7.98       1.00      -0.02
      8.08       0.12       0.02
      8.43      -0.66      -0.00
      8.22      -0.84      -0.37
      7.69      -0.33       0.07
      7.68      -0.14       0.19
      8.06       0.18      -0.10
      8.28       0.13       0.04
      8.45      -0.21      -0.34
      7.75      -0.12      -0.09
      8.30      -0.01       0.07
      8.59       0.10      -0.27
      8.16       0.18      -0.30
      8.31       0.39       0.26
      7.69       0.56      -0.23
      7.54      -0.04       0.44
      6.77       0.21       0.49
      7.19       0.31       0.56
      7.65      -0.22      -0.03
      7.29      -0.39      -0.10
      7.25      -0.54      -0.18
      7.13      -0.54      -0.21
      7.48      -0.08       0.13
      8.15       0.09       0.20
      7.90       0.26      -0.01
      7.69       0.09      -0.26
      7.58      -0.11      -0.42
      7.65       0.02      -0.44
      7.28       0.10       0.20
      7.37       0.12       0.06
      7.73       0.00       0.18
      7.47      -0.28      -0.15
      7.73      -0.40      -0.30
      7.93       0.17      -0.23
      8.02       0.10      -0.26
      7.16      -0.70       0.06
      6.99      -0.42       0.40
      7.76       0.11      -0.12
      7.58       0.40      -0.25
      7.39      -0.11       0.10
      7.28      -0.04      -0.06
      7.74       0.25      -0.20
      8.04       0.11      -0.29
      8.65       0.18      -0.46
      8.34      -0.01      -0.45
      8.66       0.26      -0.23
      8.62       0.33       0.03
      8.62       0.49      -0.19
      8.49      -0.25       0.03
      8.92       0.05      -0.07
      7.16      -0.32       0.48
      7.57      -0.20       0.36
      7.65       0.28       0.11
      7.88      -0.19      -0.01
      7.66      -0.36       0.30
      8.06       0.52       0.26
      7.73      -0.11       0.08
      7.89       0.05       0.00
      7.68       0.96       0.19
      7.74       0.43       0.23
      7.88       0.21       0.16
      7.69       0.49       0.12
      7.12       0.08       0.25
      7.49      -0.06       0.00
      7.76       0.17       0.08
      7.98      -0.28       0.11
      7.70      -0.24      -0.03
      7.48      -0.66       0.09
      6.97      -0.74      -0.34
      7.36      -0.72      -0.02
      7.60      -0.17       0.29
      7.71       0.15       0.19
      7.71       0.39      -0.54
      7.83       0.28      -0.38
      7.19       0.16      -0.17
      6.80      -0.10       0.12
      7.03      -0.23       0.34
      7.42      -0.05      -0.02
      7.74      -0.01      -0.44
      7.77      -0.30      -0.32
      7.73       0.03       0.04
      8.22       0.32       0.01
      6.96       0.00       0.29
      7.31      -0.20       0.23
      7.26       0.25       0.00
      6.94      -0.04      -0.24
      7.60      -0.12      -0.10
      7.55      -0.16      -0.04
      7.22       0.10       0.14
      6.96       0.06       0.19
      7.42      -0.38      -0.30
      8.16      -0.11      -0.66
      8.16       0.47      -0.23
      8.37       0.26      -0.62
      8.44       0.30      -0.66
      8.60       0.27      -0.06
      8.08      -0.14      -0.57
      8.08       0.12      -0.28
      7.84       0.05      -0.21
      7.67       0.15       0.30
      8.14      -0.49      -0.03
      7.31      -0.63      -0.15
      7.64       0.16      -0.00
      7.80       0.25       0.19
      5.25      -0.12       0.33
      4.66       0.94       0.22
      5.10       1.13       0.11
      5.47       0.51       0.29
      6.85       0.43       0.26
      7.62       0.01       0.41
      7.14       0.30       0.36
      7.44      -0.02       0.40
      7.47      -0.13      -0.11
      7.63      -0.29       0.15
      7.80      -0.57      -0.04
      7.62      -0.16      -0.48
      7.31      -0.13       0.14
      6.94       0.06       0.65
      7.26       0.73       0.36
      7.33       0.35       0.10
      7.32       0.29      -0.39
      7.17      -0.06       0.00
      7.15       0.39       0.14
      6.64      -0.29       0.09
      6.88      -0.52       0.02
      6.36      -0.24      -0.38
      6.71      -0.09      -0.29
      7.27       0.30      -0.29
      7.32       0.28      -0.27
      7.46       0.36      -0.34
      6.87       0.29       0.53
      7.47       0.07       0.09
      7.96       0.06      -0.39
      7.79       0.47      -0.01
      7.46       0.15       0.23
      7.50       0.44       0.23
      7.45       0.18       0.47
      8.13      -0.68      -0.47
      7.80      -0.30      -0.31
      6.88       0.15       0.05
      7.62       0.21      -0.21
      7.50       0.20      -0.22
      7.88      -0.09      -0.33
      8.13       0.07      -0.34
      7.08       0.35      -0.26
      7.30       0.04       0.38
      7.39      -0.05       0.24
      7.29      -0.40      -0.16
      7.28      -0.01       0.36
      6.97      -0.01       0.29
      7.06       0.40       0.15
      4.71       0.43       0.62
      2.83       0.59       0.71
      3.15       0.70       0.54
      3.65       0.17       0.82
      6.61       0.27       0.68
      7.64      -0.16       0.64
      7.41       0.49       0.65
      7.53       0.20       0.25
      7.48      -0.24      -0.02
      7.35      -0.24       0.29
      7.70      -0.07      -0.02
      7.82      -0.13      -0.56
      7.40      -0.23      -0.09
      6.67       0.35       0.21
      6.61       0.16       0.18
      7.03       0.20      -0.06
      7.12       0.17       0.05
      7.34       0.13      -0.12
      7.02       0.42       0.37
      7.60       0.07      -0.17
      6.80       0.07       0.40
      6.56      -0.62       0.29
      6.62      -0.68       0.17
      6.71      -0.43      -0.07
      7.24      -0.21       0.17
      6.70       0.50       0.00
      6.61       0.12       0.15
      7.39       0.03       0.17
      7.16       0.19      -0.22
      6.99       0.07      -0.06
      6.60      -0.33       0.66
      7.47      -0.24       0.33
      8.30      -0.43      -0.28
      8.09      -0.16      -0.68
      7.58      -0.17      -0.38
      6.82       0.09       0.49
      6.77       0.34       0.10
      6.61       0.26       0.05
      6.58       0.29      -0.04
      6.38       0.18       0.34
      6.99      -0.07       0.24
      6.85      -0.25       0.31
      6.88      -0.26       0.08
      6.63      -0.32       0.28
      6.93      -0.04       0.34
      6.91       0.01       0.56
      7.06       0.35       0.52
      4.83       0.48       0.61
      4.49       0.48       0.65
      4.36       0.18       0.47
      4.46       0.01       0.65
      6.65       0.15       0.60
      7.82       0.53       0.13
      7.65      -0.20       0.26
      7.47      -0.33       0.10
      7.77       0.13      -0.08
      7.67      -0.45       0.13
      7.78      -0.40      -0.25
      7.13      -0.03      -0.21
      6.89       0.40       0.66
      6.42       0.44       0.60
      7.42      -0.20       0.30
      7.45      -0.18      -0.12
      7.93      -0.26       0.10
      7.86       0.30      -0.17
      6.83       0.43       0.14
      6.69      -0.07      -0.17
      6.51       0.14       0.49
      7.35      -0.15       0.22
      7.52      -0.44      -0.27
      7.69      -0.19      -0.68
      7.68      -0.90      -0.62
      7.33       0.86       0.32
      7.57       0.66      -0.53
      6.90       0.35      -0.03
      7.43       0.51      -0.37
      7.77       0.52       0.04
      7.69      -0.15      -0.54
      8.06      -0.19      -0.38
      7.48      -0.44       0.18
      7.13       0.34      -0.15
      6.63      -0.31      -0.15
      7.03       0.33       0.46
      7.04       0.34       0.42
      6.73       0.20      -0.13
      6.85       0.21       0.12
      6.62      -0.33       0.55
      6.61      -0.64       0.29
      6.87      -0.63       0.12
      7.29      -0.60      -0.12
      7.41      -0.68      -0.39
      7.66      -0.65      -0.11
      7.51      -0.08       0.12
      7.29       0.30       0.07
      4.93       0.24       0.36
      3.87      -0.20       0.76
      4.13       0.20       0.58
      4.03       0.21       0.46
      6.96       0.13      -0.21
      7.96       0.59      -0.32
      8.12       0.48      -0.07
      8.09      -0.28       0.22
      7.17      -0.40       0.26
      8.16      -0.29       0.82
      7.13       0.17       0.28
      7.28       0.31      -0.15
      7.37       0.55       0.04
      7.40      -0.46      -0.36
      7.68      -0.58      -0.18
      6.71      -0.07       0.56
      6.94      -0.40       0.64
      7.09       0.08       0.53
      7.15       0.83       0.37
      7.12       0.57       0.27
      7.18       0.24      -0.15
      7.34      -0.36      -0.52
      7.29      -0.87      -0.53
      7.15      -0.49      -0.10
      5.48      -0.29       0.80
      6.52      -0.32       0.69
      7.00       0.13      -0.10
      7.32       0.30      -0.21
      7.30      -0.13      -0.48
      7.48       0.01      -0.41
      7.43       0.00      -0.51
      7.09      -0.30       0.10
      7.30      -0.06       0.33
      6.86       0.54       0.37
      6.67       0.28       0.21
      6.61      -0.05       0.07
      6.62       0.01       0.03
      6.84      -0.17       0.02
      6.80      -0.11      -0.25
      7.19      -0.25      -0.50
      7.35      -0.55      -0.65
      7.02      -0.28      -0.26
      6.88      -0.32       0.34
      7.13      -0.32       0.18
      7.18      -0.09      -0.11
      7.32       0.06      -0.02
      7.38      -0.17       0.15
      5.08       0.04       0.33
      4.02       0.03       0.32
      4.11       0.02       0.36
      4.45       0.23       0.17
      6.91      -0.12      -0.62
      8.15      -0.02      -0.46
      8.42       0.27      -0.44
      8.23      -0.08      -0.29
      7.55      -0.10      -0.30
      7.91       0.59       0.24
      7.46       0.40       0.39
      7.95       0.21       0.06
      8.47       0.12      -0.45
      7.93      -0.36      -0.49
      7.63      -0.09      -0.25
      7.61      -0.29      -0.02
      7.05       0.28       0.98
      6.44       0.05       0.24
      6.81       0.35       0.51
      7.63       0.32       0.18
      7.75      -0.19      -0.53
      8.00      -0.60      -1.18
      7.53       0.64      -0.59
      6.59       0.54      -0.32
      6.89      -0.05      -0.04
      6.34      -0.39       0.01
      6.56       0.19       0.63
      7.00       0.47       0.11
      7.22      -0.19       0.19
      6.92       0.14       0.39
      6.90       0.01       0.40
      6.82      -0.00       0.16
      6.81      -0.23       0.17
      7.19       0.24       0.32
      7.29       0.61       0.13
      7.08      -0.53       0.72
      6.61      -0.93       0.56
      6.92      -0.69       1.22
      6.12      -0.35       0.63
      7.06      -0.80      -0.85
      6.80      -0.04      -0.13
      7.59      -0.38      -0.24
      7.63      -0.13      -0.24
      7.41      -0.41       0.07
      7.08      -0.05       0.27
      7.56      -0.46       0.25
      7.64      -0.31       0.25
      7.64      -0.31       0.26
      7.75      -0.26      -0.28
      7.39      -0.57      -0.55
      7.87      -0.04      -0.69
      7.22      -0.04       0.17
      8.79      -0.44       0.01
      6.52      -0.29       0.17
      6.58       0.31       0.44
      6.69      -0.28       0.01
      7.29      -0.29      -0.34
      7.56       0.02      -0.19
      7.54      -0.31      -0.41
      7.52      -0.17      -0.02
      7.38       0.54      -0.05
      7.60      -0.12      -0.12
      7.77       0.67      -0.05
      7.39       0.09       0.23
      7.47      -0.44      -0.05
      7.88      -0.31       0.12
      8.01      -0.19       0.41
      8.09      -0.37       0.14
      8.00      -0.53      -0.50
      8.38       0.04      -1.14
      8.07       0.33      -0.36
      7.01       0.28       0.16
      7.70       0.09      -0.29
      8.13       0.42      -0.07
      6.44       0.40       0.35
      6.44       0.53       0.62
      6.97       0.33       0.49
      7.02       0.18       0.33
      6.60       0.11      -0.11
      6.55       0.20       0.06
      6.86       0.06       0.48
      7.10       0.35       0.53
      8.15      -0.82       0.26
      7.45      -0.51       0.45
      6.39      -0.41       0.15
      6.99      -0.38      -0.23
      7.15      -0.02      -0.82
      7.59      -0.44      -1.14
      7.90      -0.47      -0.63
      8.06      -0.75      -0.30
      8.01      -0.54      -0.09
      7.58      -0.08       0.14
      7.77      -0.54       0.13
      7.79      -0.17      -0.15
      7.29      -0.53       0.16
      7.08      -0.90       0.15
      7.88      -0.31      -0.24
      7.39      -0.50      -0.06
      7.32      -0.07      -0.00
      7.27      -0.30       0.15
      6.26      -0.04       0.14
      6.38      -0.31       0.51
      6.59      -0.30       0.76
      6.90      -0.08       0.50
      6.36      -0.09       0.23
      6.73       0.40       0.27
      6.51       0.56       0.16
      7.20       0.06      -0.37
      7.57      -0.26       0.04
      7.88      -0.14       0.71
      8.16      -0.03      -0.02
      6.94      -0.61       0.03
      6.81      -0.11       0.38
      6.23      -0.73       0.56
      7.01      -0.36       0.29
      6.83      -0.31       0.62
      6.88       0.19       0.31
      7.08       0.24       0.35
      7.74       0.27      -0.14
      8.30       0.32      -0.95
      8.07       0.42      -0.04
      7.85       0.59      -0.05
      7.76       0.37      -0.36
      7.48       0.43      -0.33
      7.35       0.44      -0.15
      7.22       0.37      -0.33
      7.14       0.05      -0.17
      6.92      -0.05      -0.16
      7.07       0.07       0.14
      8.26      -0.30      -0.32
      7.79       0.02       0.24
      8.05      -0.38       0.07
      8.17      -0.05      -0.31
      8.03      -0.12      -0.66
      8.30      -0.15      -0.90
      8.45      -0.14      -0.84
      7.90       0.21      -1.05
      8.45       0.05      -0.28
      8.28      -0.34      -0.78
      8.27      -0.32      -0.66
      7.59       0.12       0.11
      7.30       0.05       0.24
      7.54      -0.89      -0.32
      7.54      -1.12       0.05
      7.24      -0.20       0.23
      7.01      -0.08      -0.42
      7.39       0.54       0.28
      6.69       0.18       0.39
      6.79       0.26      -0.09
      7.04      -0.26      -0.10
      7.31      -0.51       0.38
      7.14      -0.61       0.75
      7.17       0.22       0.36
      7.20      -0.34       0.91
      8.02      -0.91       0.17
      8.12      -0.79      -0.33
      8.14      -0.51      -0.21
      8.66      -0.10      -0.11
      8.51      -0.38      -0.80
      7.34      -0.04      -0.46
      7.47      -0.19      -0.47
      6.98      -0.31       0.56
      6.98       0.00       1.05
      6.89      -0.45       0.40
      6.99      -0.47       0.51
      7.53      -0.09       0.44
      7.36       0.17      -0.19
      7.12       0.58      -0.02
      7.14       0.29       0.50
      7.43       0.48       0.09
      7.08       0.48      -0.04
      7.46       0.61      -0.33
      7.62       0.61      -0.29
      7.83       0.00      -0.30
      7.55       0.16      -0.08
      7.97      -0.01      -0.46
      7.92      -0.08       0.38
      8.34      -0.20       0.16
      7.74      -0.61       0.52
      7.33      -0.21       0.36
      7.96       0.02      -0.79
      7.74      -0.18       0.15
      7.49       0.07       0.53
      7.70      -0.33      -0.53
      8.07      -0.37      -0.66
      8.25      -0.36      -0.78
      8.22       0.15      -0.58
      8.50       0.13       0.05
      8.52      -0.47       0.28
      7.76      -0.74      -0.46
      7.78      -0.08      -0.35
      7.72       0.19      -0.35
      7.27      -0.52       0.66
      7.48       0.18      -0.00
      7.31       0.34       0.35
      6.72      -0.01       0.81
      7.48      -0.84       0.54
      7.88      -1.20      -0.04
      8.05      -0.55       0.32
      8.07      -0.19       0.15
      7.89      -0.34      -0.14
      7.48      -0.71       0.11
      7.72      -0.70       0.21
      7.95      -1.00       0.18
      8.18      -0.21      -0.46
      8.49       0.15      -0.72
      8.24       0.25      -0.72
      8.16      -0.39      -0.77
      7.39       0.17      -0.13
      7.68      -0.10       0.53
      7.37      -0.33       0.35
      7.22      -0.33      -0.03
      7.34      -0.36       0.15
      7.32       0.05       0.42
      7.56       0.20       0.55
      7.29      -0.08       0.39
      7.59       0.08       0.31
      7.75       0.15      -0.22
      8.16       0.09      -0.37
      8.17       0.08      -0.34
      8.22       0.49       0.14
      7.76       0.00       0.11
      7.51       0.05      -0.16
      8.32      -0.24       0.05
      8.15      -0.24       0.23
      8.55      -0.72       0.19
      7.48      -0.09       0.50
      7.72       0.02      -0.51
      7.56       0.34       0.32
      7.97      -0.31      -0.64