# vtk DataFile Version 3.0
Low resolution, disturbed wind of YZ Slice at time = 21 seconds.
ASCII
DATASET STRUCTURED_POINTS
DIMENSIONS     1    26    12
ORIGIN    2008.00     635.00      15.00
SPACING      30.00      30.00      30.00
POINT_DATA             312
VECTORS DisYZ float
      8.39       0.75      -0.30
      5.88       1.20      -0.20
      4.85      -0.33       0.27
      5.73       0.67       0.11
      4.48      -0.10       0.27
      6.03       0.20       0.15
      6.07      -0.38       0.35
      6.17       0.65      -0.04
      4.09      -0.05       0.63
      4.92       0.62       0.08
      4.82       0.04       0.54
      5.32       0.41       0.25
      4.58      -0.02       0.10
      5.16       0.19      -0.25
      5.30       0.83       0.18
      4.74      -0.49      -0.01
      5.51       0.51      -0.07
      6.48      -0.31      -0.60
      5.61      -0.48       0.02
      6.51       0.08      -0.04
      7.50      -0.47      -0.19
      5.24      -0.03       0.22
      5.29      -0.45       0.25
      7.18      -0.01       0.02
      6.38       0.28       0.23
      5.71       0.78       0.26
      6.26       0.02      -0.33
      6.00       0.26      -0.27
      6.90       0.74      -0.41
      7.39       0.65      -0.34
      6.05       0.35       0.47
      6.71       0.39      -0.13
      6.60      -0.02       0.25
      7.34       0.18      -0.40
      7.30       0.34      -0.07
      6.06       1.15       0.31
      6.81       0.61      -0.03
      7.35       0.43      -0.58
      5.98       0.10       0.48
      5.67       0.74       0.17
      6.75       0.84      -0.26
      5.84       0.29       0.26
      5.82       0.42       0.29
      6.72      -0.47      -0.11
      5.89      -0.07       0.63
      7.45       0.17      -0.04
      6.94      -0.18       0.01
      8.27      -0.00      -0.57
      7.87       0.10      -0.12
      6.91       0.39       0.53
      7.87       0.09      -0.30
      7.48      -0.07      -0.12
      8.67       0.80       0.01
      6.96       0.68       0.01
      7.89       0.97      -0.12
      8.02       0.11      -0.00
      6.82       0.79       0.38
      6.23       1.09       0.62
      7.30       0.33       0.62
      7.72       0.16       0.01
      8.26       0.19      -0.37
      6.95       0.04      -0.15
      7.53      -0.34       0.17
      8.38      -0.21      -0.28
      6.82      -0.27       0.19
      6.85       0.33       0.88
      6.55       0.38       0.56
      6.37      -0.17       0.33
      7.25       0.01      -0.15
      7.29       0.17       0.00
      8.02       0.52       0.07
      7.08       0.11       0.11
      8.31      -0.61       0.09
      8.36      -0.62      -0.32
      8.68      -0.21      -0.70
      8.22      -0.20      -0.01
      8.63      -0.02      -0.09
      7.68      -0.14       0.16
      7.92       0.32      -0.08
      7.45       0.55      -0.19
      7.45       0.03      -0.05
      6.70       0.09       0.22
      6.75       0.38       0.73
      7.19       0.34       0.69
      7.60       0.36       0.05
      7.99       0.38      -0.27
      8.49       0.13      -0.35
      7.40      -0.27       0.26
      8.37      -0.49      -0.19
      8.66      -0.34      -0.68
      8.55      -0.38      -0.18
      7.75       0.19       0.91
      7.64      -0.24       0.00
      6.95       0.52       0.08
      6.99       0.49      -0.20
      8.59       0.21      -0.56
      8.06       0.15      -0.04
      7.77       0.01       0.38
      8.31      -0.28      -0.45
      9.04      -0.32      -0.43
      9.23      -0.60      -0.47
      8.86      -0.47      -0.02
      8.45      -0.55      -0.12
      8.48      -0.28       0.22
      7.51      -0.18       0.19
      7.94      -0.61      -0.29
      8.55      -0.00      -0.04
      7.96       0.29      -0.02
      7.91       0.80       0.78
      7.92       0.84       0.37
      7.59       0.88       0.18
      7.82       0.58       0.23
      8.09      -0.28       0.29
      8.40      -0.26       0.13
      8.79      -0.13      -0.26
      8.61      -0.59      -0.29
      8.07      -0.39       0.09
      8.07       0.39       0.77
      7.99       0.33       0.14
      7.87       0.02       0.01
      7.50       0.44      -0.02
      8.29      -0.07       0.12
      7.89      -0.07       0.32
      8.24      -0.16       0.03
      8.74      -0.17       0.05
      9.10      -0.54      -0.51
      9.16      -0.42      -0.54
      9.07      -0.14      -0.37
      9.04       0.16      -0.04
      9.11       0.28      -0.10
      7.58      -0.10       0.45
      8.91      -0.02      -0.29
      8.21       0.10      -0.16
      8.89      -0.18       0.30
      7.91       0.03       0.43
      7.48       0.39       0.15
      7.55       0.17       0.21
      8.39      -0.04       0.26
      8.87       0.09       0.25
      8.79       0.14       0.19
      8.70      -0.11      -0.10
      9.27      -0.38       0.10
      8.64      -0.20       0.51
      8.16      -0.07       0.78
      9.33       0.16       0.06
      8.67       0.25       0.19
      8.41       0.52       0.48
      8.37       0.17      -0.04
      8.40      -0.28      -0.07
      8.68      -0.10       0.02
      8.54      -0.14       0.19
      9.23       0.08      -0.28
      9.34      -0.19      -0.56
      9.58       0.34      -0.35
      9.06       0.23      -0.07
      9.01       0.37       0.01
      7.78      -0.37       0.06
      8.38      -0.20      -0.00
      7.94      -0.03       0.25
      8.40      -0.12       0.16
      7.54       0.08       0.32
      7.71       0.17       0.47
      8.70      -0.23       0.06
      8.76      -0.14       0.23
      9.10      -0.01      -0.07
      8.84       0.13       0.46
      9.46      -0.07       0.21
      9.38      -0.15       0.32
      9.16      -0.08       0.83
      9.07       0.22       0.53
      9.05       0.21       0.55
      9.26       0.55       0.29
      9.11       0.47       0.28
      9.01       0.51       0.30
      8.40       0.38       0.03
      8.81      -0.26      -0.25
      8.90      -0.21       0.10
      9.19      -0.08      -0.37
      9.37      -0.10      -0.65
      9.31      -0.39      -0.22
      9.31      -0.29      -0.52
      9.44      -0.13      -0.15
      8.45      -0.03      -0.19
      8.72      -0.41       0.56
      9.17      -0.48       0.45
      8.87      -0.52       0.15
      8.92      -0.16       0.14
      9.20      -0.17       0.44
      9.60      -0.13       0.15
      9.59       0.05      -0.12
      8.91       0.16      -0.01
      9.01       0.04       0.18
      9.45      -0.03       0.24
      9.71       0.02       0.25
      9.63      -0.27       0.65
      9.71      -0.42       0.61
      9.66      -0.35       0.28
      9.41       0.16       0.24
      9.49       0.28       0.09
      9.45      -0.04       0.11
      8.94       0.01       0.08
      8.94      -0.20       0.07
      9.68      -0.48      -0.25
      9.34      -1.10      -0.23
      9.42      -0.92      -0.25
      9.72      -1.30      -0.03
      9.24      -0.90      -0.83
     10.02      -1.09      -0.08
      8.97      -0.69       0.41
      9.42      -0.78       0.27
      9.55      -0.72       0.23
      8.77      -0.38       0.30
      9.44      -0.32       0.34
      8.93       0.32       0.29
      9.33       0.07       0.03
      9.34      -0.74       0.20
      9.46      -0.87       0.04
      9.63      -1.05      -0.07
      9.66      -0.92      -0.02
      9.71      -0.81       0.34
      9.86      -0.85       0.19
      9.53      -0.34       0.44
      9.57      -0.29       0.38
      9.17      -0.70      -0.06
      9.03      -0.68       0.10
      9.16      -0.57      -0.09
      9.62      -1.18       0.24
      9.29      -1.58      -0.01
      9.58      -1.22      -0.35
     10.11      -0.91      -0.19
      9.59      -0.80       0.01
      9.46      -0.74      -0.31
      9.62      -0.86      -0.16
      9.33      -1.26      -0.11
      8.81      -0.28       0.34
      9.05      -0.67       0.33
      9.51      -0.52       0.08
      9.38      -0.48       0.12
      9.86      -0.18      -0.23
      9.16      -0.84      -0.06
      9.56      -1.25       0.31
      9.62      -1.16       0.33
      9.57      -0.76       0.12
      9.76      -0.81      -0.19
     10.02      -0.94       0.01
     10.16      -0.98       0.10
     10.43      -0.74      -0.24
     10.33      -0.76       0.25
      9.97      -0.35       0.11
      9.41      -0.68       0.03
      9.42      -1.11      -0.17
      9.36      -1.29       0.40
      9.64      -1.74       0.45
      8.84      -1.51       0.03
     10.25      -1.06      -0.65
     10.67      -0.85      -0.19
     10.18      -0.98      -0.07
      9.72      -0.92      -0.33
      9.91      -1.26      -0.42
      9.72      -1.03      -0.38
      9.09      -0.51       0.31
      9.26      -0.54       0.19
      9.41      -0.41       0.06
      9.88      -0.29       0.03
      9.82      -0.20      -0.15
      9.12      -0.65       0.44
      9.67      -0.97       0.28
      9.96      -0.92       0.15
     10.30      -0.93       0.03
     10.20      -0.88      -0.36
     10.08      -1.07       0.14
     10.34      -0.67       0.12
     10.17      -0.77      -0.05
      9.85      -0.56      -0.11
     10.32      -0.84       0.15
      9.68      -0.73       0.19
      9.64      -1.06       0.20
      9.31      -1.30       0.50
      9.29      -1.17       0.35
      8.91      -1.20       0.08
      9.74      -1.11      -0.55
      9.92      -0.71      -0.55
     10.17      -1.18      -0.07
      9.64      -1.32      -0.15
      9.89      -0.91      -0.29
      9.99      -0.91      -0.43
      9.46      -0.37      -0.04
      9.38      -0.43       0.23
      9.91      -0.93       0.06
     10.43      -0.41      -0.21
      9.97      -0.33       0.08
      8.78      -0.37       0.40
      9.51      -0.04      -0.07
     10.02      -0.05      -0.29
      9.96      -0.41       0.37
     10.39      -0.61      -0.03
     10.38      -0.80       0.12
     10.20      -0.95       0.00
      9.95      -1.08       0.11
      9.85      -0.77       0.24
      9.64      -0.72       0.07
      9.74      -0.72       0.34
      9.44      -0.65       0.44
      9.74      -0.83       0.02
      9.64      -0.66       0.10
      9.18      -0.65       0.36
      9.93      -0.82      -0.48
      9.87      -0.91       0.10
     10.07      -1.29      -0.17
     10.26      -1.04      -0.63
      9.56      -1.16      -0.33
     10.00      -1.16       0.13
