# vtk DataFile Version 3.0
Low resolution, disturbed wind of YZ Slice at time = 51 seconds.
ASCII
DATASET STRUCTURED_POINTS
DIMENSIONS     1    26    12
ORIGIN    2008.00     635.00      15.00
SPACING      30.00      30.00      30.00
POINT_DATA             312
VECTORS DisYZ float
      5.46       0.36       0.16
      6.57       0.56      -0.24
      5.47       1.46       0.30
      5.84       0.68       0.06
      4.79      -0.50      -0.13
      5.51      -0.14      -0.06
      5.71      -0.71       0.02
      5.67       0.98      -0.26
      6.01       1.38      -0.03
      4.72       1.07       0.35
      4.92       0.36       0.04
      5.28      -0.14      -0.09
      5.10       0.84      -0.00
      5.96       0.14      -0.30
      5.72      -0.33       0.02
      3.96       0.04       0.59
      4.61       0.52      -0.06
      4.76       1.15       0.11
      4.56       1.03       0.47
      6.10       0.91       0.06
      5.17       0.24       0.19
      6.25      -0.59       0.05
      6.88       0.92      -0.63
      5.87       0.24      -0.08
      7.32       0.15      -0.23
      7.41       0.22      -0.69
      6.46      -0.31      -0.46
      7.03       0.45      -0.05
      6.94       0.51       0.08
      6.37       0.79      -0.12
      5.12       0.06      -0.05
      6.34       0.15       0.56
      6.71      -0.11       0.14
      7.19       0.02      -0.47
      6.96      -0.36       0.11
      5.16      -0.81       1.34
      5.82       0.36       0.23
      7.10      -0.15       0.22
      7.09       0.67      -0.02
      7.34       0.84      -0.28
      6.24      -0.02      -0.27
      6.38      -0.48       0.11
      7.34       0.29      -0.25
      7.17       0.48      -0.15
      6.54       0.48       0.30
      6.01       0.21      -0.19
      7.25       0.22       0.45
      7.34       0.50       0.11
      7.80       0.36      -0.56
      7.12       0.72      -0.48
      7.65       0.12      -0.73
      8.13      -0.44      -0.13
      6.64      -0.28      -0.14
      7.28      -0.49       0.00
      7.02      -0.42       0.55
      7.53       0.01       0.34
      6.76       0.00       0.43
      7.45      -0.08       0.17
      6.96      -0.01      -0.02
      8.01      -0.84      -0.12
      7.64      -0.23       0.18
      6.75      -0.23       0.69
      6.87       0.25       0.58
      7.15       0.10       0.30
      6.55       0.29       0.55
      6.85       0.80       0.04
      6.84       0.16      -0.09
      6.38       0.15      -0.12
      6.99       0.39       0.17
      7.24       0.15      -0.09
      7.11       0.16       0.01
      7.17       0.06       0.20
      8.25       0.26       0.04
      7.92       0.18       0.05
      8.39       0.74       0.14
      7.75       0.23      -0.11
      8.33      -0.50      -0.12
      8.57      -0.17       0.21
      7.50      -0.21       0.54
      7.73      -0.29      -0.38
      7.80      -0.51       0.02
      8.15      -0.54       0.06
      6.74      -0.47       1.09
      8.04      -0.48       0.01
      7.78      -0.47       0.06
      8.23      -0.33      -0.07
      8.27      -0.26       0.05
      7.93      -0.55       0.56
      7.57       0.21       0.43
      6.84      -0.01       0.23
      8.22       0.19      -0.13
      6.82      -0.61       0.89
      9.22      -0.02      -0.63
      8.39       0.75      -0.23
      8.21       0.48       0.10
      8.66       0.10      -0.01
      7.83      -0.41      -0.11
      7.76       0.21       0.29
      8.29       0.67       0.01
      7.76       0.42       0.20
      7.84       0.20       0.11
      8.90      -0.40       0.39
      8.99      -0.57       0.38
      8.90      -0.53      -0.14
      7.46      -0.07       0.70
      8.08      -0.29       0.13
      8.46      -0.72      -0.21
      8.53      -0.48      -0.15
      8.60       0.01       0.40
      8.11       0.06       0.24
      7.96       0.01       0.31
      8.74      -0.41       0.16
      8.86      -0.51      -0.34
      9.02      -0.44      -0.16
      8.44      -0.14       0.11
      7.53       0.09       0.05
      8.70      -0.48       0.02
      9.08      -0.52      -0.33
      8.91      -1.02      -0.48
      8.55      -0.81      -0.16
      8.69      -0.91       0.15
      8.37      -0.80      -0.34
      8.31      -0.42       0.02
      8.92      -0.06      -0.02
      8.21       0.18      -0.01
      8.53       0.09       0.11
      8.20      -0.02       0.36
      9.12      -0.15       0.79
      8.79      -0.55       0.15
      9.05      -0.74      -0.14
      8.71       0.32      -0.15
      8.45      -0.03       0.43
      8.12       0.35       0.15
      8.13       0.14       0.00
      8.07      -0.19       0.30
      8.25      -0.10       0.35
      8.31       0.15       0.29
      8.88      -0.27       0.26
      9.00      -0.22       0.03
      8.91      -0.81       0.01
      8.50      -0.58      -0.59
      8.39      -0.32       0.31
      8.47      -0.28       0.13
      8.98      -0.31      -0.02
      9.15      -0.38      -0.26
      9.47      -0.70      -0.72
      8.72      -0.56      -0.44
      8.86      -0.71       0.45
      9.20      -0.90       0.29
      8.93      -0.78      -0.01
      9.54      -0.58      -0.36
      8.98      -0.33      -0.13
      8.86      -0.09       0.15
      8.82       0.29       0.80
      9.14       0.22       0.22
      9.51      -0.56      -0.09
      9.30      -0.33       0.39
      8.56      -0.14       0.34
      8.03       0.20       0.10
      8.55       0.45      -0.13
      8.62       0.17       0.46
      8.74       0.50       0.39
      8.57       0.22       0.23
      8.99       0.13       0.56
      8.85       0.31       0.50
      9.52      -0.03      -0.41
      9.19      -0.28      -0.24
      8.43      -0.54      -0.03
      8.98      -0.75       0.12
      9.37      -0.65      -0.11
      9.60      -0.38      -0.26
      9.73      -0.51      -0.58
      9.21      -0.58      -0.36
      9.25      -0.64       0.28
      9.56      -0.52       0.19
      9.42      -0.71      -0.19
      9.42      -0.69      -0.16
      8.88      -0.63      -0.09
      9.12      -0.30      -0.09
      9.15      -0.33       0.53
      9.21      -0.64       0.63
      9.35      -0.41      -0.09
      9.16      -0.43       0.24
      8.58      -0.33       0.29
      8.82      -0.25       0.20
      8.88      -0.08       0.10
      8.59       0.24       0.65
      8.43       0.67       0.40
      9.11       0.62       0.56
      8.56       0.51       0.78
      8.92       0.32       0.88
      9.05      -0.46       0.01
      8.88      -0.63      -0.46
      9.06      -0.31      -0.11
      9.12      -0.28       0.06
      9.41      -0.07      -0.54
     10.10      -0.36      -0.45
      9.65      -0.74      -0.28
      9.75      -0.81      -0.51
      9.09      -0.78      -0.16
      9.64      -0.71      -0.13
      9.57      -0.77       0.02
      9.43      -0.66      -0.08
      9.59      -0.34      -0.44
      9.15      -0.59      -0.05
      9.30      -0.63       0.72
      8.84      -0.73       0.39
      9.48      -0.24      -0.07
      8.78      -0.10       0.37
      9.00      -0.42       0.16
      9.66      -0.19      -0.05
      9.49      -0.30       0.45
      8.91       0.00       0.56
      9.08       0.20       0.51
      8.75       0.12       1.03
      8.40      -0.02       0.76
      8.75      -0.05       0.78
      8.86       0.02       0.15
      9.15      -0.72       0.28
      9.36      -0.68      -0.18
      9.68      -0.24      -0.55
     10.07      -0.24      -0.40
      9.62      -0.75      -0.21
      9.81      -0.66      -0.35
      9.99      -0.77      -0.15
      9.44      -0.53       0.02
      9.14      -0.40       0.25
      9.11      -0.70       0.30
      9.49      -0.86      -0.00
      9.52      -0.49      -0.07
      9.29      -0.39       0.35
      9.36      -0.53       0.21
      9.55      -0.00      -0.12
      9.81      -0.59      -0.42
      9.38      -0.77       0.59
      8.93      -0.72       0.81
      9.57      -0.58       0.21
      9.01      -0.49       0.51
      9.30      -0.10       0.03
      8.47       0.08       0.82
      8.52       0.13       1.10
      8.79       0.34       0.56
      8.88      -0.09       0.21
      8.61      -0.24       0.55
      9.58      -0.01       0.06
      9.75      -0.19      -0.29
     10.32      -0.68      -0.15
     10.02      -0.62      -0.45
      9.58      -0.92      -0.21
      9.39      -0.65      -0.26
      9.27      -0.56      -0.37
      9.05      -1.02       0.45
      9.34      -1.03       0.31
      9.33      -0.77       0.31
      9.92      -0.71       0.11
     10.15      -0.62      -0.09
      9.61      -0.30       0.19
      9.76      -0.03      -0.20
      9.94       0.01      -0.23
      9.84      -0.40       0.04
      9.27      -0.99       1.02
      9.14      -0.74       0.76
      9.41      -0.59       0.22
      9.80      -0.84       0.52
      9.92      -0.70       0.46
     10.23      -0.31       0.20
      9.87      -0.11       0.33
      9.21      -0.40       0.36
      9.06      -0.25       0.58
      9.53      -0.34       0.35
      9.55      -0.11       0.19
      9.97      -0.08       0.05
     10.34      -0.72      -0.24
      9.66      -1.06      -0.19
      9.56      -0.79      -0.30
      9.70      -0.74      -0.34
     10.31      -0.66      -0.51
      9.42      -0.84       0.41
      9.67      -0.77       0.17
      9.51      -0.64       0.21
      9.84      -0.74      -0.02
      9.75      -0.63      -0.30
      9.74      -0.61      -0.24
     10.03      -0.82      -0.29
      9.41      -1.03      -0.15
     10.03      -0.75       0.27
      9.00      -0.48       0.85
      9.34      -0.20       0.12
     10.04      -0.55       0.04
      9.79      -0.82       0.47
     10.29      -0.74       0.25
      9.65      -0.19       0.29
      9.85      -0.29       0.12
      9.42      -0.70       0.75
      9.62      -0.73      -0.07
      9.60      -0.50       0.04
      9.54      -0.44       0.09
     10.01      -0.64      -0.06
      9.70      -0.96       0.07
      9.77      -0.83      -0.14
     10.13      -0.95      -0.17
      9.98      -0.80      -0.24
      9.99      -0.86      -0.24
      9.88      -0.69       0.05
      9.61      -0.98       0.07
      9.88      -1.08      -0.23
     10.14      -0.91       0.32
     10.10      -0.77       0.13
     10.06      -0.84      -0.71
     10.48      -0.53      -0.38
     10.54      -0.81      -0.19
     10.46      -0.52       0.08
