# vtk DataFile Version 3.0
Low resolution, disturbed wind of XZ Slice at time = 9 seconds.
ASCII
DATASET STRUCTURED_POINTS
DIMENSIONS    47     1    12
ORIGIN     635.00    1000.00      15.00
SPACING      30.00      30.00      30.00
POINT_DATA             564
VECTORS DisXZ float
      4.24      -0.65      -0.18
      4.40      -0.37       0.02
      5.04      -0.17       0.03
      4.81       0.70      -0.03
      5.32       0.54      -0.02
      5.19      -0.07      -0.17
      4.67       0.57       0.16
      5.36       0.22      -0.10
      5.32       0.34       0.08
      6.02       0.54      -0.47
      6.45       0.46      -0.10
      7.26      -0.35      -0.12
      5.42       0.07       0.07
      4.82      -0.04       0.37
      5.01       0.69       0.50
      4.71       0.67       0.61
      3.50       0.05      -0.04
      3.92       0.60       1.03
      5.69       0.07      -1.03
      4.45       0.18       0.31
      4.43       0.06       0.65
      3.12       0.27       0.79
      4.26      -0.05      -0.22
      4.34       0.53       0.14
      4.61      -0.08      -0.19
      4.93      -0.09      -0.04
      5.31       0.69       0.11
      4.44      -0.40      -0.48
      4.38       0.44       0.31
      4.65      -0.49      -0.25
      4.75       0.19      -0.10
      4.62       0.68      -0.20
      5.24       0.30      -0.53
      5.68       0.67      -0.25
      5.96       1.20      -0.26
      5.86       0.05      -0.09
      5.26       0.13      -0.88
      5.47       0.44      -0.18
      5.54      -0.30       0.56
      4.94       0.47       0.05
      5.85       0.36      -1.05
      4.80       0.36       0.59
      5.80      -0.51       0.53
      4.84      -0.15      -0.27
      4.41       0.25      -0.11
      5.53       1.11      -0.11
      4.95       0.19       0.09
      6.16       0.76       0.02
      6.41       0.32      -0.12
      6.50       0.14      -0.08
      6.09       0.06      -0.34
      6.54       0.18      -0.16
      6.43      -0.12       0.02
      5.71      -0.61       0.17
      6.16       0.07       0.13
      6.87       0.31      -0.04
      6.59      -0.12       0.29
      6.74       0.61       0.13
      7.30       0.19       0.04
      2.85      -0.21       0.08
      2.35      -0.68       0.36
      1.91      -0.41       1.49
      7.16      -0.24      -0.02
      6.30      -0.24       0.41
      7.04      -0.76       0.43
      7.21      -0.00      -0.48
      7.03      -0.26      -0.20
      5.59      -0.29       1.27
      6.72      -0.26      -0.38
      5.50       0.07      -0.21
      6.33       0.31       0.26
      6.29       0.65       0.42
      6.08       0.51       0.09
      6.05       0.53       0.11
      6.50       0.01      -0.01
      5.86       0.29       0.46
      6.05       0.10       0.13
      6.35       1.14       0.41
      6.05       0.33       0.01
      5.97      -0.65      -0.35
      6.54      -0.37       0.01
      7.66      -0.17      -0.84
      6.63       0.71      -0.21
      6.89       0.65      -0.36
      5.30       0.78       0.22
      5.67       0.09       0.25
      6.31       0.08       0.12
      6.79       0.23      -0.49
      7.06      -0.15      -0.25
      6.17      -0.15       0.26
      5.76      -0.35       0.50
      6.62       0.56      -0.08
      6.12       0.30       0.34
      6.13       1.22       0.04
      6.74       0.40      -0.08
      6.78       0.41       0.10
      6.78       0.42       0.00
      6.65      -0.14       0.19
      6.87      -0.25       0.38
      6.67      -0.22       0.25
      6.42      -0.26       0.07
      6.65      -0.12       0.30
      7.10       0.27       0.16
      6.87       0.19       0.54
      7.01       0.32       0.26
      7.41       0.39       0.32
      3.65       0.57       0.42
      4.28      -0.46       0.55
      4.60      -0.43       0.73
      8.00      -0.06       0.33
      7.41       0.05       0.23
      7.66      -0.52       0.02
      7.59      -0.19      -0.19
      7.57      -0.45      -0.10
      7.09      -0.62       0.18
      7.55       0.23      -0.44
      6.29       0.15      -0.15
      6.06       0.50       0.53
      6.88       0.18       0.18
      7.18      -0.14      -0.02
      7.10      -0.60       0.41
      7.44       0.05       0.32
      7.52       0.31       0.06
      6.57       0.35      -0.08
      6.80       0.21       0.31
      6.35       0.11       0.54
      6.54      -0.11       0.57
      7.09      -0.46      -0.69
      7.53      -0.53      -1.08
      6.74       0.01       0.16
      7.18       1.11      -0.09
      7.74       0.87      -0.51
      6.47       0.70      -0.04
      7.75       0.27      -0.61
      7.62      -0.19      -0.48
      7.64       0.49      -0.40
      6.84       0.16       0.43
      6.55      -0.10       0.46
      6.80      -0.40      -0.39
      5.97      -0.15       0.01
      5.95       0.27      -0.01
      6.44       0.30       0.15
      6.13      -0.08       0.17
      6.14      -0.08       0.18
      6.81       0.02       0.52
      7.32      -0.35       0.24
      7.74      -0.61       0.17
      7.95      -0.63       0.19
      7.23      -0.74       0.37
      7.19      -0.62       0.25
      7.16      -0.00       0.64
      7.36       0.46       0.39
      7.56       0.52       0.33
      7.81       0.58       0.15
      4.67       0.78       0.45
      4.84       1.19       0.38
      7.94       0.98      -0.06
      8.15       0.60       0.01
      8.47       0.10       0.26
      8.16       0.07       0.32
      8.21      -0.06      -0.11
      8.44      -0.14       0.01
      8.34      -0.24      -0.08
      8.01       0.40       0.21
      7.91       0.38       0.32
      7.47      -0.20       0.54
      8.13      -0.41      -0.02
      8.02       0.26      -0.30
      8.36      -0.11      -0.04
      8.55      -0.03       0.07
      7.36       0.30      -0.48
      7.16       0.08       0.38
      7.68       0.28      -0.06
      8.08      -0.24      -0.26
      8.43      -0.49      -0.27
      7.27      -0.16      -0.19
      7.15      -0.76       0.06
      8.11      -0.58      -0.22
      7.98      -0.46      -0.32
      7.64       0.06       0.07
      7.93       0.36       0.18
      8.29       0.35      -0.48
      8.14      -0.11      -0.40
      9.15      -0.35      -0.52
      8.23       0.02       0.38
      7.53       0.43       0.30
      7.80      -0.15      -0.50
      7.57      -0.42      -0.10
      6.51      -0.23       0.25
      6.61      -0.17      -0.10
      7.11      -0.20      -0.17
      7.46      -0.24       0.44
      7.30      -0.36       0.29
      7.13      -0.25       0.31
      7.21      -0.31       0.33
      7.09      -0.31       0.60
      7.17      -0.01       0.49
      7.48       0.17       0.27
      7.57       0.01       0.32
      7.88      -0.23       0.38
      8.01      -0.12       0.27
      3.68       0.09       0.50
      3.93       0.20       0.47
      8.56       0.61       0.15
      8.67       0.51       0.16
      8.41       0.67       0.39
      8.54       0.11       0.35
      8.48      -0.17      -0.18
      8.55       0.10       0.06
      8.20       0.15       0.06
      8.01       0.05       0.24
      8.28       0.02       0.19
      8.37      -0.13      -0.15
      9.02       0.06      -0.07
      8.63      -0.11       0.09
      7.80      -0.23       0.09
      7.90      -0.01       0.33
      7.49      -0.15       0.51
      7.65      -0.72       0.27
      7.91      -0.62       0.16
      7.83      -0.24       0.27
      7.80      -0.25       0.23
      8.27      -0.34       0.33
      8.31      -0.73       0.02
      8.52      -1.22       0.15
      8.66      -0.52       0.23
      8.48      -0.14       0.01
      8.58      -0.36      -0.27
      8.79      -0.06       0.00
      9.22       0.03      -0.06
      8.89      -0.42       0.00
      7.71      -0.20       0.71
      7.65       0.23       0.37
      7.90      -0.11      -0.34
      8.20       0.12      -0.62
      7.76       0.32      -0.06
      8.07       0.24      -0.70
      8.12       0.51      -0.77
      7.96       0.03       0.05
      7.15      -0.21       0.68
      7.47       0.03       0.70
      7.96       0.13       0.63
      8.15       0.08       0.40
      8.09       0.02       0.21
      8.17       0.19       0.05
      8.38       0.04      -0.15
      7.98       0.07       0.25
      7.76       0.12       0.39
      6.55      -0.14      -0.03
      7.23      -0.19      -0.11
      8.08       0.71       0.26
      8.24       0.95       0.69
      8.35       0.09       0.73
      8.65       0.04       0.14
      8.61       0.12       0.07
      8.82      -0.10       0.07
      9.15      -0.27      -0.05
      8.62       0.06       0.27
      8.95       0.54      -0.19
      8.79       0.33      -0.47
      8.54      -0.28      -0.00
      8.39      -0.28       0.32
      8.45       0.15       0.10
      8.10       0.01       0.39
      7.92       0.07       0.33
      7.70      -0.18       0.29
      7.80      -0.66       0.60
      8.43      -0.96       0.46
      8.02      -0.63       0.28
      7.89      -0.54       0.27
      8.14      -0.58       0.38
      8.40      -0.62       0.32
      8.64      -0.51       0.30
      8.85      -0.24       0.07
      9.12      -0.37       0.10
      9.09      -0.20      -0.22
      8.62       0.22      -0.60
      8.93       0.17       0.40
      8.06      -0.11       0.50
      8.40      -0.04       0.09
      8.56      -0.06      -0.39
      8.44       0.35      -0.73
      8.72      -0.72      -0.41
      8.65      -0.30      -0.70
      8.59       0.39      -0.47
      8.86      -0.34      -0.24
      8.77      -0.27       0.35
      8.54      -0.31       0.57
      8.11      -0.23       0.86
      8.45      -0.18       0.48
      8.50      -0.71       0.05
      8.33      -0.82      -0.27
      8.62      -1.00      -0.04
      8.77      -0.01       0.01
      8.56      -0.02      -0.08
      9.09       0.21      -0.35
      9.25       0.27      -0.50
      9.46       0.23      -0.24
      9.47       0.27       0.51
      9.36       0.87       0.55
      9.69       0.23       0.17
      9.41      -0.23      -0.01
      9.13      -0.13       0.08
      9.10      -0.33       0.07
      8.74      -0.46       0.06
      9.01      -0.43      -0.25
      9.23      -0.13      -0.40
      8.87       0.05       0.33
      8.65      -0.15       0.40
      8.59      -0.04      -0.04
      9.07      -0.09       0.16
      9.49       0.12       0.40
      8.47       0.04       0.67
      8.49      -0.02       0.16
      8.69      -0.70      -0.21
      8.95      -0.70      -0.03
      9.05      -0.42       0.08
      8.88      -0.51       0.06
      8.59      -0.77       0.10
      8.58      -0.89       0.33
      9.06      -0.75       0.31
      9.45      -0.99       0.08
      9.42      -0.60       0.16
      9.62      -0.21       0.02
      9.27      -0.15       0.70
      9.53       0.15       0.40
      9.38       0.37       0.12
      9.71      -0.25      -0.59
      8.96      -0.10      -0.55
      9.22      -1.08      -0.16
      8.78      -0.46      -0.02
      8.53       0.17       0.18
      8.65      -0.54       0.35
      8.40      -0.89       0.35
      8.34      -0.60       0.33
      8.56      -0.38       0.59
      9.21      -0.46       0.61
      9.99      -0.54       0.15
      9.42      -0.42       0.04
      8.96      -1.03       0.66
      8.40      -1.75       0.25
      8.45      -1.34      -0.25
      8.37      -0.99      -0.48
      8.25      -0.94      -0.62
      8.62      -0.56      -0.30
      8.88      -0.22       0.48
      9.07      -0.40       0.68
      9.26      -0.36       0.33
      9.11      -0.14       0.39
      8.73      -0.48       0.35
      8.80      -0.85       0.27
      8.96      -0.92      -0.03
      9.01      -0.87      -0.43
      9.25      -0.33      -0.26
      9.31      -0.11       0.01
      9.65      -0.36       0.18
      9.85       0.03      -0.06
      9.56      -0.08      -0.10
      8.95      -0.21       0.46
      9.05       0.08       0.47
      9.30       0.10      -0.01
      9.30      -0.24      -0.37
      9.30      -0.39      -0.13
      8.90      -0.40       0.16
      9.28      -0.80       0.13
      9.86      -1.34      -0.27
      9.56      -1.19      -0.08
      9.15      -0.68       0.34
      9.15      -0.73       0.28
      9.38      -0.82       0.33
      9.61      -0.59       0.47
      9.47      -0.24       0.68
      9.81       0.29       0.39
     10.08       0.10      -0.01
      9.37      -0.18      -0.37
      9.20      -0.58      -0.45
      9.23      -0.06       0.17
      9.26      -0.28       0.07
      8.82      -0.43       0.25
      8.94      -0.38       0.56
      9.15      -0.62       0.42
      8.96      -0.79       0.26
      9.10      -0.93       0.43
      9.43      -0.46       0.20
     10.29      -0.62       0.09
     10.01      -0.83       0.66
      8.44      -0.82       0.86
      7.91      -0.64       0.78
      8.21      -0.91       0.41
      8.78      -1.11      -0.19
      9.01      -0.90      -0.18
      8.75      -1.04      -0.15
      8.76      -1.05      -0.03
      8.75      -0.88       0.27
      8.69      -1.05       0.37
      8.75      -1.07       0.35
      8.85      -1.05       0.47
      9.20      -1.23       0.17
      9.24      -1.14      -0.27
      8.89      -0.83      -0.32
      8.66      -0.78      -0.22
      8.65      -0.73      -0.21
      8.91      -0.31      -0.09
      9.42       0.18      -0.01
      9.35       0.16      -0.00
      8.95      -0.02       0.09
      9.12      -0.15      -0.01
      9.33      -0.24      -0.11
      9.29      -0.31      -0.18
      9.13      -0.61      -0.21
      9.31      -0.58      -0.24
      9.52      -0.53      -0.04
      9.43      -0.81       0.04
      9.54      -0.90      -0.00
      9.74      -0.68      -0.25
      9.66      -0.72      -0.58
      9.71      -0.88      -0.07
      9.92      -0.98       0.46
      9.85      -1.05       0.35
      9.86      -0.81       0.08
     10.10      -0.89      -0.12
     10.08      -1.07      -0.32
     10.10      -0.73      -0.24
      9.22      -0.73       0.29
      9.28      -0.90       0.14
      8.92      -0.54       0.22
      9.03      -0.54       0.47
      9.30      -0.85       0.54
      9.36      -0.80       0.45
      9.27      -0.33       0.03
      9.04      -0.59       0.08
      8.54      -0.95       0.58
      8.51      -0.57       0.96
      8.92       0.05       0.60
      9.32      -0.08       0.22
      9.38      -0.34       0.11
      9.40      -0.31       0.10
      9.51      -0.51       0.13
      9.41      -0.52       0.06
      9.29      -0.99       0.13
      9.16      -1.15       0.15
      9.23      -1.11       0.07
      9.52      -1.10       0.44
     10.19      -0.92       0.53
     10.47      -1.38       0.19
      9.87      -1.20       0.18
      9.37      -0.96      -0.15
      9.05      -1.03      -0.39
      8.98      -0.67      -0.14
      8.80      -0.35      -0.12
      8.83      -0.18      -0.17
      9.18      -0.04       0.09
      9.37       0.07       0.17
      9.32      -0.03       0.22
      9.41      -0.24       0.26
      9.74      -0.44       0.00
      9.93      -0.24      -0.33
      9.89      -0.33      -0.20
      9.80      -0.70      -0.07
      9.82      -0.89      -0.14
      9.95      -0.85      -0.20
     10.16      -0.65      -0.20
     10.17      -0.43      -0.16
     10.06      -0.35      -0.30
     10.39      -0.67      -0.25
     10.31      -0.92      -0.27
      9.94      -0.86      -0.20
     10.17      -0.93      -0.16
     10.32      -0.56      -0.52
     10.01      -0.44      -0.46
      9.04      -0.44       0.50
      9.17      -0.40       0.57
      9.08      -0.50       0.44
      8.91      -0.68       0.48
      9.12      -0.51       0.73
      9.60      -0.10       0.68
      9.41       0.08       0.45
      8.86      -0.36       0.34
      8.87      -0.80       0.58
      9.45      -0.70       0.46
      9.83      -0.35       0.21
      9.93      -0.24       0.07
     10.06      -0.53       0.15
      9.95      -0.65       0.03
      9.92      -0.48       0.17
      9.77      -0.74       0.39
      9.53      -0.89       0.30
      9.49      -0.87       0.15
     10.02      -1.02      -0.02
      9.60      -0.89       0.14
      9.33      -1.04       0.46
      9.41      -1.22       0.56
      9.63      -1.05       0.32
      9.73      -0.81      -0.07
      9.87      -0.82      -0.16
      9.84      -1.03       0.03
      9.53      -1.06      -0.42
      9.50      -1.00      -0.37
      9.40      -0.80       0.10
      9.14      -0.45       0.20
      9.14      -0.23       0.15
      9.42      -0.21      -0.03
      9.92      -0.39      -0.25
     10.43      -0.60      -0.27
     10.34      -0.69      -0.01
      9.91      -0.48       0.09
      9.91      -0.28       0.16
     10.20      -0.37      -0.03
     10.27      -0.61      -0.17
     10.26      -0.71      -0.15
     10.58      -0.57      -0.23
     10.39      -0.58      -0.09
     10.01      -0.68      -0.00
      9.95      -0.96      -0.02
      9.72      -0.91      -0.17
      9.83      -0.80      -0.33
      9.93      -0.77      -0.19
      9.34      -0.31       0.69
      9.38      -0.22       0.76
      9.59      -0.14       0.40
      9.46      -0.12       0.31
      9.25      -0.01       0.62
      9.12       0.19       0.71
      9.11       0.19       0.43
      9.21       0.04       0.21
      9.31       0.09       0.19
      9.40       0.32       0.12
      9.72       0.42       0.16
      9.85       0.51       0.23
     10.15       0.22       0.15
      9.98       0.07      -0.15
      9.97      -0.39       0.05
     10.05      -0.63       0.28
     10.02      -0.68       0.27
      9.81      -0.62       0.23
      9.58      -0.88       0.13
      9.50      -1.06       0.27
      9.48      -1.11       0.19
      9.59      -1.12       0.02
      9.73      -1.31      -0.02
      9.79      -1.56      -0.11
     10.02      -1.32      -0.08
     10.12      -1.03       0.00
      9.96      -0.91       0.04
      9.74      -0.80      -0.03
      9.57      -0.77      -0.01
      9.56      -0.81       0.08
      9.66      -0.82       0.07
      9.88      -0.72      -0.04
     10.20      -0.72      -0.23
     10.20      -0.71      -0.26
     10.27      -0.50      -0.16
     10.51      -0.47      -0.37
     10.43      -0.66      -0.27
     10.22      -0.75      -0.07
     10.14      -1.01      -0.13
     10.07      -1.07      -0.32
     10.21      -0.66      -0.28
     10.15      -0.72      -0.08
     10.01      -1.06       0.07
     10.02      -0.85       0.08
     10.06      -0.67      -0.05
     10.12      -0.75      -0.07
     10.06      -0.64      -0.00
