# vtk DataFile Version 3.0
Low resolution, disturbed wind of YZ Slice at time = 12 seconds.
ASCII
DATASET STRUCTURED_POINTS
DIMENSIONS     1    26    12
ORIGIN     748.00     635.00      15.00
SPACING      30.00      30.00      30.00
POINT_DATA             312
VECTORS DisYZ float
      6.02       0.89       0.44
      6.22       0.51      -0.52
      5.86       0.95      -0.35
      5.49      -0.19      -0.12
      3.25      -0.06       0.31
      4.72      -0.15       0.05
      7.13       0.11      -0.44
      6.48       0.19      -0.31
      6.34       0.32      -0.36
      4.65      -0.49      -0.28
      3.24      -0.10       0.20
      5.78       0.11      -0.26
      5.11       0.69      -0.04
      3.05      -0.01       0.09
      4.56      -0.22      -0.25
      4.08       0.07       0.03
      4.66      -0.04      -0.24
      5.16       0.27      -0.36
      4.28      -0.01       0.00
      5.31      -0.33      -0.13
      5.92       0.37      -0.01
      5.88      -0.94      -0.21
      4.24      -0.33       0.21
      6.40      -0.61       0.20
      5.04       0.95      -0.24
      6.49       1.19      -0.11
      6.97       0.33       0.31
      6.55       0.13      -0.38
      6.72       0.10       0.11
      6.22       1.17       0.14
      4.34       0.31       0.58
      6.48      -0.01      -0.03
      7.46      -0.36       0.12
      6.68      -0.85       0.60
      7.79       0.33       0.04
      8.29       0.27       0.52
      6.84       0.30      -0.02
      7.55       0.94      -0.23
      6.42       0.12      -0.30
      5.12       0.20       0.10
      5.96       0.50      -0.36
      5.34       0.59       0.15
      6.48       0.42      -0.42
      7.01      -0.44       0.08
      6.51      -0.28      -0.06
      6.20      -0.46       0.25
      8.18      -0.54      -0.16
      6.42       0.13      -0.44
      6.90      -0.58      -0.06
      7.80       0.10       0.19
      8.32       0.09      -0.80
      8.75      -0.33      -0.51
      8.81       0.78       0.55
      7.70       0.50      -0.02
      6.82       0.16      -0.08
      6.36      -0.26       0.32
      6.98       0.24      -0.39
      6.85       0.17      -0.06
      7.27      -0.08       0.45
      7.71      -0.45       0.19
      8.19      -0.67      -0.34
      7.76      -0.17       0.04
      8.03       0.30      -0.22
      7.34       0.43      -0.85
      6.74      -0.01       0.07
      6.60      -0.47       0.50
      7.09      -0.86      -0.70
      7.20      -0.88      -0.25
      7.74      -0.76      -0.64
      8.28      -0.06      -0.77
      7.89       0.29      -0.58
      7.12       0.68       0.41
      7.69      -0.05      -0.32
      8.22      -0.25      -0.37
      8.09      -0.09      -0.24
      8.10       0.85      -0.14
      9.01      -0.28      -0.17
      9.30       0.44      -0.45
      9.04       0.91       0.22
      8.65       0.36       0.50
      7.48       0.27       0.46
      8.02       0.37       0.46
      8.40       0.45      -0.14
      7.64       0.68       0.23
      7.29       0.14       0.19
      8.56      -0.17       0.47
      8.30      -0.98      -0.32
      8.50      -0.47       0.50
      8.13      -0.35      -0.32
      7.05       0.14       0.39
      6.86       0.14       0.42
      6.65      -0.49       0.48
      7.61      -0.01      -0.62
      7.12       0.40      -0.75
      7.06       0.66      -1.21
      8.17      -0.04      -0.65
      7.75      -0.54      -0.01
      8.42      -0.37      -0.33
      8.80      -0.39      -0.12
      9.15       0.14      -0.45
      8.52       0.56      -0.29
      9.51       0.42      -0.49
      9.44       0.61      -0.92
      9.32       1.20      -0.08
      8.10      -0.50       0.39
      7.47      -0.15       0.36
      8.14      -0.10       0.37
      7.50       0.33       0.09
      7.77       0.32       0.19
      7.94       0.24       0.17
      7.60      -0.07       0.66
      7.47      -0.40       0.55
      9.17      -0.33       0.06
      9.13      -0.18      -0.38
      8.78       0.07      -0.38
      6.56      -0.30       0.50
      7.42      -0.27       0.39
      7.63       0.15       0.10
      8.03       0.12      -0.63
      8.17       0.34      -0.94
      8.27       0.17      -0.96
      8.97      -0.75      -0.62
      9.18      -0.74      -0.40
      9.25      -0.70      -0.17
     10.21      -1.00      -0.26
      9.25      -0.14      -0.60
      9.44      -0.38      -0.68
      9.47      -0.39      -0.92
      9.46       0.11      -1.28
      9.34       0.20      -0.17
      7.89      -0.07       0.65
      7.69       0.25       0.32
      7.88       0.40       0.10
      7.91       0.09       0.27
      8.04       0.24       0.31
      7.61       0.29       0.39
      7.95       0.00       0.36
      8.30      -0.12       0.65
      8.69      -0.08       0.39
      8.93      -0.13      -0.54
      8.41      -0.71      -0.30
      7.92      -1.16       0.17
      7.69       0.01      -0.02
      7.52       0.41      -0.35
      8.65       0.00      -1.17
      8.92      -0.35      -0.96
      8.63      -0.92      -0.63
      9.33      -0.86      -0.40
      9.41      -1.21      -0.47
      9.58      -1.05      -0.15
      9.55      -0.64      -0.34
      9.46      -0.74      -0.65
     10.06      -0.67      -0.96
      8.97      -0.95      -1.37
      9.08      -0.89      -0.90
      7.95      -0.88      -0.32
      8.01      -0.42       0.43
      8.22      -0.37       0.41
      7.83      -0.31       0.11
      7.64      -0.04       0.47
      7.87       0.04       0.23
      8.87       0.10       0.26
      8.68       0.33       0.31
      8.31       0.00       0.57
      8.58       0.23       0.25
      9.08       0.17       0.11
      8.87      -0.01      -0.27
      8.28      -0.06      -0.12
      8.81      -0.23      -0.17
      8.14      -0.03      -0.07
      9.16      -0.74      -0.80
      9.26      -1.27      -0.68
      9.20      -1.17      -0.79
      9.23      -1.20      -0.35
      9.48      -0.98      -0.38
     10.10      -1.08      -0.19
     10.12      -0.56      -0.61
     10.05      -0.72      -0.43
      9.09      -1.31      -0.75
      8.78      -1.24      -1.05
      8.45      -1.14      -1.17
      8.26      -0.92      -0.66
      8.23      -0.53       0.12
      8.72      -0.88      -0.35
      8.54      -0.65      -0.09
      8.57      -0.41       0.10
      8.22      -0.21       0.40
      8.80      -0.18       0.22
      8.70       0.19       0.22
      8.68       0.17       0.24
      9.28      -0.10      -0.16
      8.89      -0.35       0.01
      8.78      -0.01       0.18
      8.31      -0.10       0.20
      8.45      -0.49       0.35
      9.09      -0.54       0.12
      9.61      -1.04      -0.80
      9.66      -1.05      -0.66
      9.55      -1.15      -0.69
      9.76      -1.35      -0.52
     10.26      -0.90      -0.75
     10.14      -0.94      -0.65
      9.87      -0.67      -0.61
     10.22      -0.55      -0.08
     10.57      -0.25      -0.55
     10.28      -0.07      -0.53
     10.21      -0.25      -1.10
      9.09       0.06      -1.01
      8.67      -0.61       0.37
      8.74      -0.31       0.02
      9.19      -0.01      -0.62
      9.06      -0.53      -0.08
      9.52      -0.77      -0.07
      9.50      -0.65       0.11
      9.02      -0.61      -0.21
      9.87      -0.30       0.24
      9.74      -0.22      -0.15
      8.96      -0.18      -0.01
      8.62      -0.35      -0.04
      8.80       0.03      -0.10
      8.89      -0.39       0.54
      9.18      -0.51       0.43
      9.03      -0.90      -0.10
      9.49      -0.90      -0.17
     10.38      -1.40      -0.15
      9.80      -1.18      -0.21
     10.00      -0.86      -0.53
     10.20      -0.85      -0.53
     10.22      -0.84      -0.40
      9.92      -0.59      -0.45
     10.08      -0.32      -0.59
      9.95      -0.51      -1.25
      9.70      -0.49      -1.01
      8.98      -0.38      -0.58
      9.34      -0.61      -0.33
      8.94       0.01      -0.08
      9.79      -0.10      -0.08
      9.17      -0.15       0.17
      9.28      -0.49       0.15
      9.67      -0.36       0.04
      9.38      -0.59      -0.07
      9.23      -0.41      -0.10
      9.83      -0.21      -0.08
      8.73      -0.12       0.05
      8.97       0.12      -0.01
      9.01      -0.68       0.22
      9.02      -0.55       0.40
      9.16      -0.30       0.84
      9.32      -0.67       0.25
      9.44      -1.11      -0.09
      9.56      -1.02      -0.35
      9.88      -0.93       0.15
     10.01      -0.97      -0.83
     10.73      -0.83      -0.33
     10.34      -1.07      -0.43
     10.32      -0.94      -0.23
     10.81      -0.92      -0.57
     10.22      -0.70      -1.08
     10.09      -0.59      -0.92
      9.66      -0.13      -0.77
      9.60      -0.29      -0.08
      9.93      -0.27      -0.21
      9.64      -0.30       0.06
      9.76      -0.34       0.31
      9.68      -0.12       0.25
      9.68      -0.13       0.16
      9.74      -0.24       0.23
      9.94      -0.39      -0.08
      9.84      -0.32      -0.01
      9.61      -0.08      -0.10
      9.29      -0.37       0.04
      8.55      -0.40       0.69
      8.95      -0.73       0.42
      9.10      -0.69       0.66
      8.85      -0.58       0.30
      9.07      -0.65       0.07
      9.05      -1.03      -0.14
      9.33      -0.87      -0.81
      9.90      -0.67      -0.78
     10.14      -0.62      -0.31
     10.77      -1.15      -0.26
     10.57      -0.91      -0.25
     10.46      -0.93      -0.63
     10.26      -0.84      -0.71
     10.00      -0.48      -0.78
     10.31      -0.75      -0.58
      9.72      -0.33      -0.24
     10.40      -0.32      -0.33
     10.15      -0.44      -0.11
     10.01      -0.17       0.41
     10.18      -0.14       0.16
     10.09      -0.21       0.20
      9.17      -0.73       0.17
      9.95      -0.61      -0.10
      9.25      -0.30       0.21
      9.99      -0.08      -0.12
     10.09      -0.53       0.07
      8.78      -0.63       0.43
      9.42      -0.16       0.34
      9.52       0.21       0.42
      9.36      -0.00       0.58
      8.90      -0.03       0.29
      8.54      -0.30       0.32
      9.38      -0.58      -0.55
      9.57      -0.68      -0.60
     10.10      -0.86      -0.60
     10.81      -0.77      -0.60
     10.43      -1.04      -0.25
     10.00      -1.04      -0.14
     10.01      -0.94      -0.54
     10.54      -0.64      -0.16
     10.81      -0.69      -0.98
