# vtk DataFile Version 3.0
Low resolution, disturbed wind of YZ Slice at time = 42 seconds.
ASCII
DATASET STRUCTURED_POINTS
DIMENSIONS     1    26    12
ORIGIN    1630.00     635.00      15.00
SPACING      30.00      30.00      30.00
POINT_DATA             312
VECTORS DisYZ float
      5.87       1.00       0.07
      5.16       0.60       0.29
      6.06      -0.07      -0.37
      5.69       0.21       0.46
      5.86      -0.07      -0.09
      6.57       0.26      -0.33
      4.32       0.16       1.14
      6.25       0.52      -1.02
      5.63       0.82       0.26
      4.57       0.74       0.23
      3.68       0.66       0.59
      3.57       0.34       0.12
      4.64       0.70      -0.41
      5.81      -0.16      -0.02
      5.48       0.88       0.39
      5.25      -0.24       0.30
      3.88       0.46      -0.19
      5.28       0.31      -0.11
      5.20       0.35      -0.20
      6.74       0.26      -0.48
      4.44      -0.01       0.21
      5.41      -0.69       0.19
      6.42       0.10      -0.42
      5.03      -0.75       0.19
      7.35      -1.61      -0.38
      5.88      -0.53       0.29
      6.77       0.50       0.43
      6.76       1.30       0.52
      6.96       0.02      -0.34
      5.75      -0.56       0.56
      6.31       0.84       0.07
      7.19       0.10      -0.58
      7.07       0.03      -0.08
      6.48      -0.05      -0.51
      6.29      -0.09      -0.17
      5.43       0.52      -0.36
      5.99       0.24       0.02
      6.36       0.88      -0.12
      6.08       0.06      -0.17
      6.65       0.20       0.25
      5.76       0.29      -0.36
      5.07       1.36      -0.20
      7.40       0.15      -1.00
      7.37      -0.25      -0.16
      6.96      -0.30       0.12
      7.03      -0.36       0.01
      6.97      -0.99      -0.24
      7.11      -0.14      -0.11
      7.01       0.05       0.28
      7.00       0.05       0.38
      7.27      -0.26      -0.95
      7.80      -0.03       0.02
      8.35      -0.01       0.34
      8.34       0.04       0.49
      8.38      -0.01      -0.27
      7.52       0.74      -0.10
      7.13      -0.07       0.27
      7.39      -0.02       0.02
      8.07       0.34      -0.70
      7.32       0.16       0.01
      7.53      -0.02      -0.37
      7.40       0.32       0.07
      6.98       0.75       0.14
      7.06       0.26       0.06
      7.34      -0.15      -0.14
      6.57      -0.22       0.07
      6.58      -0.88      -0.42
      7.35       0.61      -0.24
      7.51       0.44       0.41
      7.57      -1.01      -0.16
      7.42      -0.73       0.17
      8.25      -1.53      -0.46
      8.34      -0.95      -0.01
      8.44      -0.93      -0.22
      7.31      -0.78       0.16
      7.72      -0.13       0.50
      7.88      -0.38      -0.40
      8.51      -0.55      -0.08
      8.75       0.45       0.08
      7.87      -0.30       0.59
      8.27      -0.37       0.51
      8.48      -0.11      -0.17
      7.61       0.23       0.08
      8.30       0.14      -0.53
      7.74      -0.74      -0.60
      7.20      -0.33       0.09
      7.92      -0.30      -0.08
      7.38      -0.83       0.02
      7.10      -0.45       0.09
      7.12      -0.14       0.34
      7.95      -0.34       0.08
      7.77       0.05      -0.07
      8.25      -0.30      -0.70
      8.52       0.06      -0.48
      8.08      -0.34       0.76
      8.14      -0.53      -0.28
      7.91      -1.24      -0.25
      8.41      -1.00      -0.24
      8.55      -0.70       0.03
      8.95      -0.72      -0.28
      8.57      -1.08      -0.40
      8.40      -0.47      -0.37
      8.07      -0.29       0.00
      8.59      -0.04       0.04
      8.14      -0.71      -0.28
      8.40      -0.37       0.15
      8.56      -0.18      -0.02
      9.58      -0.18       0.23
      9.30      -0.36      -0.02
      8.27      -0.12       0.14
      7.41      -0.51       0.05
      8.00      -0.28      -0.19
      9.08      -0.68      -1.02
      8.71      -0.68       0.36
      8.32      -0.66      -0.11
      8.37      -0.35       0.07
      8.56       0.02      -0.17
      8.19      -0.08      -0.05
      8.21      -0.04      -0.03
      8.57       0.10      -0.02
      7.55       0.69       0.99
      8.65      -0.04       0.21
      7.50      -0.49       0.35
      8.26      -1.01      -0.07
      8.41      -0.82      -0.17
      8.91      -0.55       0.21
      8.95      -0.26      -0.38
      9.37      -0.24      -0.82
      9.76      -0.03      -0.14
      8.52      -0.13       0.10
      9.15      -0.53       0.08
      8.90      -0.47      -0.05
      9.07      -0.60      -0.37
      8.82      -0.42      -0.48
      8.01      -0.35       0.10
      8.81      -0.28      -0.07
      7.72      -0.44       0.26
      8.92      -0.41      -0.56
      8.89      -0.48      -0.54
      9.36      -0.56      -0.12
      9.50      -0.38      -0.67
      9.21      -0.04      -0.36
      8.85       0.48      -0.33
      8.65       0.18      -0.02
      7.76       0.06       0.27
      9.04      -0.06      -0.28
      7.96       0.31       0.48
      8.01       0.64       0.01
      8.02       0.58       0.52
      7.64      -0.26       0.27
      8.54      -0.62      -0.08
      8.45      -0.54       0.27
      9.33      -0.59      -0.28
      9.43      -0.44      -0.70
      8.98      -0.59       0.02
      9.20      -0.26      -0.29
      8.88      -0.68       0.01
      8.91      -0.79      -0.13
      9.01      -0.84      -0.21
      9.26      -1.04      -0.23
      8.60      -1.06       0.26
      8.85      -0.89       0.03
      8.92      -0.42      -0.37
      9.28      -0.36      -0.69
      9.20      -0.21      -0.37
      9.50      -0.23      -0.58
      9.35      -0.52      -0.73
      9.24      -0.68      -0.27
      9.22      -0.48      -0.39
      8.73      -0.53      -0.12
      8.81       0.28       0.16
      8.38      -0.17      -0.03
      8.01       0.02       0.29
      8.51       0.15      -0.06
      8.11      -0.41       0.24
      7.91       0.14       0.55
      8.71      -0.35       0.09
      8.73      -0.43       0.07
      9.46      -0.57      -0.53
      9.16      -1.13      -0.29
      8.78      -1.01      -0.20
      9.01      -0.72      -0.31
      8.20      -0.36       0.09
      8.37      -0.13      -0.16
      9.30      -0.70      -0.11
      9.50      -0.70       0.07
      8.78      -1.45      -0.09
      9.07      -0.95       0.27
      9.10      -0.61      -0.09
      9.33      -0.46      -0.63
     10.42      -0.23      -0.73
      9.41       0.19      -0.17
      9.62      -0.06      -0.50
      9.19      -0.62      -0.35
      8.74      -0.66      -0.49
      8.67      -0.47      -0.15
      7.90      -0.30       0.44
      8.52      -0.78      -0.46
      7.94      -0.44       0.37
      8.32      -0.46      -0.05
      8.75      -0.41       0.79
      8.99      -0.06       0.32
      8.81       0.29      -0.13
      9.56       0.18      -0.03
      9.20      -0.13       0.07
      9.21      -0.74       0.13
      9.78      -0.60      -0.64
      9.80      -0.50      -0.47
      8.62       0.16       0.19
      8.77       0.24      -0.24
      8.76       0.09      -0.05
      9.41      -0.48       0.66
      9.12      -1.01      -0.09
      9.75      -0.01      -0.31
      9.50      -1.09      -0.22
      8.69      -0.52       0.00
      9.45      -0.12      -0.22
      9.00      -0.22      -0.41
      9.68      -0.63      -0.22
      9.16      -0.93      -0.08
      9.35      -0.86      -0.62
      8.31      -0.50      -0.16
      8.27      -0.51       0.15
      9.09      -0.96       0.19
      9.21      -0.81      -0.05
      9.13      -0.36       0.07
      8.06      -0.60       0.85
      9.50      -0.30       0.32
      9.62       0.04       0.26
      9.14      -0.22       0.16
      9.43      -0.53       0.41
      9.41      -0.60      -0.30
      9.89      -0.45      -0.53
      9.88      -0.85      -0.66
      8.79       0.36       0.07
      9.97      -0.68       0.19
      9.45      -0.63       0.29
      9.02      -0.57       0.19
      9.18      -0.68       0.48
      8.57      -0.74       0.34
      9.30      -0.78      -0.27
      9.09      -0.66       0.16
     10.07      -0.77      -0.33
      9.56      -1.00      -0.34
      9.14      -1.29      -0.02
      9.40      -1.22      -0.23
      9.51      -0.89      -0.07
     10.28      -0.52       0.01
      8.70      -0.75       0.12
      9.54      -0.70       0.16
      9.83      -0.96      -0.21
      9.78      -0.86      -0.18
     10.01      -0.78       0.58
      8.91      -0.02       0.66
      9.03      -0.34       0.34
      9.49      -0.37       0.41
      9.52      -1.29       0.56
     10.16      -1.08      -0.21
      9.98      -0.81      -0.21
      9.69      -0.97      -0.41
      9.65      -0.37       0.29
      9.68      -0.99       0.24
      9.47      -0.58      -0.13
      9.15      -0.23       0.33
      9.44      -0.49       0.61
      8.87      -0.51       0.41
      9.75      -0.48       0.08
      9.29      -0.35       0.46
     10.01      -0.62       0.19
      9.77      -1.02      -0.25
      9.72      -1.34      -0.18
      9.42      -0.84      -0.02
      9.58      -0.89       0.28
      9.52      -0.76       0.12
      9.54      -0.71       0.20
      9.92      -0.47       0.12
     10.03      -0.39      -0.27
      9.32      -0.76      -0.09
      9.06      -0.61       0.52
      8.70      -0.42       0.45
      9.49      -0.69       0.20
      9.73      -0.66       0.25
      9.93      -0.34       0.14
      9.78      -0.53       0.29
      9.60      -0.56      -0.13
     10.10      -0.58      -0.32
      9.97      -0.06       0.53
      9.64      -0.52       0.64
      9.48      -0.85      -0.20
      9.10      -0.70       0.24
      9.68      -0.38       0.62
      8.84      -0.44       0.53
      9.07      -0.51       0.46
      9.54      -0.36       0.35
     10.31      -0.48       0.42
      9.69      -0.99      -0.16
      9.85      -1.10      -0.02
      9.79      -1.48      -0.05
      9.91      -1.12       0.16
      9.60      -0.97       0.05
      9.79      -0.76       0.18
      9.84      -0.89      -0.30
      9.57      -1.00       0.24
      9.72      -0.71      -0.04
      9.35      -0.53       0.50
      9.70      -0.66      -0.14
      9.99      -0.85       0.15
     10.26      -1.04      -0.10
      9.65      -0.67      -0.08
      9.78      -1.06       0.39
     10.54      -0.98      -0.05
     10.83      -0.81      -0.52
