# vtk DataFile Version 3.0
Low resolution, disturbed wind of XY Slice at time = 6 seconds.
ASCII
DATASET STRUCTURED_POINTS
DIMENSIONS    47    26     1
ORIGIN     635.00     635.00      85.00
SPACING      30.00      30.00      30.00
POINT_DATA            1222
VECTORS DisXY float
      8.49       0.53       0.68
      8.64       0.68       0.59
      9.31       1.05       0.72
      8.26       0.49       0.22
      8.31       0.37       0.70
      8.35       0.69       0.81
      7.95       0.39       1.06
      8.22       0.03       0.57
      8.62       0.10       0.34
      8.99       0.22      -0.26
      9.22       0.27      -0.28
      9.08       0.09      -0.10
      9.07       0.10       0.07
      8.95      -0.28      -0.10
      8.47      -0.10      -0.25
      9.12       0.49      -0.55
      9.43       1.04      -0.31
      9.29       1.64      -0.05
      9.12       0.52      -0.04
      8.64       0.39       0.27
      8.44       0.49      -0.34
      8.36       0.47      -0.44
      8.09       0.06      -0.07
      8.49      -0.17       0.22
      8.40      -0.16      -0.13
      8.83      -0.29       0.41
      8.23       0.48      -0.22
      7.83       0.47       0.62
      7.16       0.12       0.20
      8.34       0.34      -0.40
      7.24       0.07       0.44
      6.96      -0.63       0.60
      6.81      -0.56       0.39
      6.52      -0.35       0.58
      6.79       0.24       0.85
      6.87       0.60       0.17
      6.58       0.20       0.17
      7.30       0.33       0.32
      7.28       0.52       0.64
      6.64      -0.28       0.39
      6.86       0.17       0.61
      7.24       0.57       0.52
      7.68       0.57      -0.20
      7.67       1.13       0.40
      7.36       0.32       0.13
      7.78       0.10      -0.22
      7.68       0.00       0.00
      8.31       0.82       0.74
      8.35       0.63       0.45
      8.01       0.48       0.14
      8.02       0.28       0.22
      7.96       0.18       0.23
      7.93       0.33       0.31
      7.84       0.15      -0.07
      7.84       0.28      -0.12
      8.18       0.08      -0.16
      8.41       0.21       0.18
      8.36       0.39      -0.09
      7.84       0.36       0.53
      7.64       0.24       0.55
      8.48      -0.15      -0.05
      8.93      -0.01      -0.31
      8.96       0.56      -0.19
      8.79       0.61      -0.44
      9.07       0.78      -0.30
      8.71       0.77       0.08
      8.75       0.46      -0.03
      8.55       0.48      -0.36
      8.38       0.66      -0.25
      8.57       0.60       0.10
      8.17      -0.04       0.24
      8.22      -0.05       0.28
      8.15      -0.26       0.27
      8.07       0.61      -0.31
      8.28       0.91       0.10
      8.73      -0.05      -0.28
      8.10       0.70       0.23
      8.33       0.74      -0.15
      7.85       0.16       0.04
      6.92      -0.25       1.03
      7.07      -0.50       0.48
      7.09      -0.37      -0.46
      7.07       0.15      -0.21
      7.43      -0.47       0.07
      7.80       0.71      -0.00
      7.79      -0.10       0.40
      7.19      -0.21       0.36
      6.92       0.03       1.15
      7.30       0.34       0.49
      7.45       0.92      -0.17
      7.57       0.66      -0.03
      7.91       0.59       0.06
      7.81       0.25      -0.19
      7.58       0.03      -0.20
      7.58       0.76       0.64
      7.60       0.47       0.24
      7.09       0.25       0.00
      7.08      -0.02       0.18
      7.34      -0.22       0.28
      7.16      -0.20       0.16
      7.20      -0.11       0.33
      7.50       0.11       0.12
      8.02       0.35       0.09
      8.67       0.40       0.02
      8.05       0.26       0.31
      7.85       0.09      -0.09
      8.35       0.02      -0.06
      8.65       0.28      -0.29
      7.59       0.05       0.23
      7.62      -0.15       0.07
      8.26       0.48       0.00
      8.18       0.54      -0.34
      8.48       0.43       0.02
      8.24       0.76      -0.36
      8.55       0.70       0.12
      8.88       0.03       0.48
      9.07       0.51       0.72
      8.20       0.21       0.34
      7.56      -0.10      -0.12
      7.45      -0.10      -0.12
      7.17       0.41       0.47
      7.51       0.32       0.54
      7.63       0.56      -0.27
      6.92       0.46       0.47
      7.54       0.53       0.41
      7.61       0.46       0.01
      7.10      -0.18       0.17
      6.93      -0.54       0.22
      6.81      -0.56       0.32
      7.21      -0.52       0.42
      7.80      -0.22      -0.16
      8.17      -0.07      -0.63
      8.78      -0.30      -0.72
      7.57       0.53       0.05
      8.05       0.33       0.05
      7.77       0.12      -0.25
      7.58       0.78      -0.09
      7.59       0.62       0.39
      8.13       0.72       0.18
      7.00       0.58       0.49
      6.61       0.58       0.88
      7.75       0.44       0.56
      7.22       0.16       0.11
      7.05       0.09      -0.16
      6.84      -0.28       0.73
      7.11      -0.34       0.22
      7.28       0.06       0.24
      7.76       0.12       0.18
      8.00       0.19      -0.19
      7.71       0.27      -0.09
      7.52       0.51       0.01
      7.83      -0.10      -0.76
      7.75       0.29       0.05
      7.21      -0.41       0.13
      7.61       0.07       0.07
      7.46       0.10       0.46
      7.01       0.03       0.17
      7.40       0.23       0.64
      7.35       0.03       0.16
      7.65       0.39      -0.34
      7.46       0.35       0.63
      7.20       0.64       1.01
      6.80       0.55       0.56
      7.23       0.57       0.24
      7.56       0.15      -0.13
      8.02       0.21       0.18
      7.86       0.10      -0.09
      7.65       0.51      -0.37
      7.16       0.55      -0.02
      7.12       0.94       0.53
      7.43       0.59       0.54
      7.12       0.19       0.30
      7.22       0.23       0.75
      7.73       0.26       0.33
      7.61       0.06      -0.05
      7.31      -0.44       0.75
      7.29      -0.51       0.13
      7.71      -0.11      -0.29
      8.01      -0.22      -0.67
      8.40      -0.16      -0.27
      8.07       0.27      -0.13
      8.15       1.13       0.12
      8.11       0.48      -0.18
      7.80       0.28       0.25
      7.00       0.04      -0.15
      6.37       0.57       0.95
      6.49       0.52       1.19
      6.84       0.44       0.55
      6.88       0.52       1.02
      6.78       0.27       0.47
      7.42       0.31      -0.37
      7.37       0.06      -0.36
      6.24      -0.34       0.33
      6.32       0.10       0.21
      6.84       0.19       0.45
      7.01       0.09       0.45
      7.16       0.60       0.39
      7.23       0.24      -0.24
      6.57       0.30       0.34
      5.91       0.17       0.38
      6.16      -0.06       0.36
      6.38      -0.47       0.56
      6.98      -0.65       0.43
      6.96       0.03      -0.34
      7.31       0.25       0.09
      7.35       0.44       0.62
      7.34       0.44       0.22
      7.63       0.46       0.28
      7.03       0.68       0.90
      7.27       0.67       0.15
      7.19       0.40      -0.19
      7.03       0.56       0.10
      7.73       0.03      -0.21
      7.31       0.05      -0.01
      7.46       0.50       0.23
      7.45       0.99       0.25
      7.54       1.15       0.02
      7.72       0.61       0.25
      7.64       0.23      -0.08
      8.18       0.36       0.20
      8.21      -0.08      -0.34
      8.31      -0.07      -0.23
      7.95      -0.02       0.08
      7.10      -0.11       0.71
      6.84       0.31       0.90
      7.37       0.01       0.24
      7.08      -0.37       0.11
      7.06       0.07      -0.08
      7.31       0.63      -0.31
      6.94       0.66       0.55
      6.94       0.43       0.64
      6.31       0.82       0.31
      6.92       0.55       0.28
      7.50       0.08      -0.02
      7.59      -0.26       0.39
      7.37       0.79       0.30
      7.15       0.35      -0.02
      6.83       0.54       0.20
      7.31       0.13      -0.11
      7.51      -0.04      -0.47
      7.54       0.31      -0.31
      8.36      -0.01      -0.51
      7.06       0.14      -0.29
      6.79       0.31       0.07
      6.41       0.33       0.56
      6.41       0.01       0.43
      6.67       0.08       0.28
      7.07       0.01       0.20
      7.32      -0.06       0.20
      6.76      -0.31       0.46
      6.67      -0.14       0.57
      6.83       0.19       0.27
      6.90       0.57       0.30
      6.78       0.76       0.46
      6.50       0.75       0.76
      6.63       0.63       0.43
      6.88       0.30       0.49
      7.15       0.09       0.37
      7.65      -0.03      -0.00
      7.60      -0.20      -0.05
      7.50      -0.22      -0.15
      7.65       0.08      -0.19
      7.57       0.71       0.01
      7.72       0.93      -0.10
      7.90       0.47      -0.36
      8.01       0.36      -0.08
      7.70      -0.21      -0.13
      7.06      -0.07      -0.20
      7.05       0.13       0.03
      7.25       0.17      -0.01
      7.24       0.15      -0.01
      7.73      -0.02      -0.43
      7.48      -0.08      -0.21
      6.89       0.30       0.12
      6.72       0.30       0.42
      6.66       0.77       0.54
      6.76       0.70       0.37
      6.78       0.46       0.65
      7.18       0.30       0.51
      7.41      -0.04       0.01
      7.61      -0.12      -0.11
      7.89       0.12       0.32
      7.10       0.82       0.46
      7.30       0.81      -0.18
      7.20       0.00       0.40
      7.58      -0.36       0.54
      7.71      -0.25       0.21
      7.95      -0.48       0.11
      8.22      -0.03      -0.03
      8.29       0.53      -0.46
      8.30       0.77      -0.85
      8.22      -0.13      -0.95
      7.96       0.15      -0.33
      7.98      -0.14       0.06
      7.86      -0.45      -0.00
      7.52       0.18      -0.01
      7.49       0.20      -0.11
      7.96       0.02      -0.13
      8.05       0.20       0.32
      7.75       0.21       0.08
      7.24       0.43       0.27
      7.35       0.70       0.31
      7.14       0.27       0.20
      7.45       0.29       0.09
      7.81       0.47      -0.20
      7.91       0.11      -0.45
      8.16      -0.31      -0.56
      8.38      -0.23      -0.55
      7.78       0.29      -0.37
      7.72       0.45      -0.32
      7.68       0.78      -0.35
      7.88       0.35       0.06
      7.98       0.68       0.21
      7.18      -0.21      -0.00
      7.34      -0.02       0.05
      7.13       0.29       0.01
      7.17       0.12      -0.20
      7.31      -0.03       0.06
      7.40       0.07       0.29
      7.33       0.08       0.06
      7.09       0.60       0.17
      7.15       0.41      -0.13
      7.08       0.40      -0.09
      7.09       0.41       0.28
      7.36       0.44       0.13
      7.55       0.35       0.13
      7.80      -0.02      -0.12
      7.56      -0.07       0.00
      8.13      -0.16      -0.29
      6.93       1.16       0.04
      7.19       0.68      -0.08
      7.77      -0.57       0.35
      7.51      -0.90       0.15
      7.78      -0.43       0.07
      7.78      -0.17      -0.07
      8.07       0.13      -0.13
      8.53       0.30       0.01
      8.57       0.09      -0.09
      8.67      -0.32      -0.58
      8.48       0.40      -0.16
      8.98       0.13      -0.67
      7.85      -0.10       0.05
      7.91      -0.08      -0.29
      7.14       0.30       0.29
      7.32      -0.21       0.42
      7.43       0.47       0.27
      7.46       0.44       0.07
      7.27      -0.20       0.10
      7.22      -0.35       0.44
      7.52       0.01       0.49
      7.59       0.15       0.11
      7.98       0.29      -0.13
      8.05      -0.09       0.03
      7.51      -0.19      -0.25
      7.24      -0.08       0.41
      7.29       0.35      -0.40
      7.49       0.27      -0.25
      7.64       0.45       0.21
      7.68       0.33       0.18
      8.03       0.28       0.11
      7.99      -0.09      -0.25
      8.20       0.26      -0.28
      8.26      -0.04      -0.16
      7.35      -0.07       0.00
      7.66      -0.30      -0.29
      7.63      -0.20      -0.23
      7.38       0.18       0.03
      7.28       0.47      -0.07
      7.49       0.41      -0.20
      7.64       0.23      -0.34
      7.99      -0.01      -0.02
      7.89       0.11      -0.04
      8.20       0.03      -0.27
      8.13       0.10      -0.42
      8.16      -0.03      -0.13
      7.94       0.04      -0.31
      7.63       0.66      -0.09
      8.14      -0.08      -0.06
      8.32      -0.89       0.03
      8.06      -0.85      -0.88
      7.59      -0.17       0.14
      7.73       0.01       0.09
      8.15       0.10       0.05
      8.27       0.44      -0.05
      8.13      -0.09      -0.26
      7.77      -0.05      -0.16
      8.67       0.25      -0.08
      8.66       0.05      -0.29
      7.82       0.09      -0.02
      8.12       0.32       0.07
      7.64       0.52       0.07
      7.28      -0.09       0.50
      6.94       0.22       0.42
      7.24       0.24       0.49
      7.68      -0.36       0.14
      7.45      -0.46      -0.13
      7.46      -0.58      -0.21
      7.17      -0.58      -0.14
      7.67      -0.03       0.08
      7.95       0.05       0.15
      7.69       0.13       0.06
      7.71       0.14      -0.23
      7.61      -0.19      -0.37
      7.59       0.09      -0.40
      7.28      -0.01       0.27
      7.53      -0.01       0.09
      7.56      -0.06       0.06
      7.43      -0.36      -0.16
      7.94      -0.13      -0.48
      7.89       0.14      -0.12
      8.10       0.32      -0.32
      6.92      -0.77       0.00
      7.18      -0.40       0.34
      7.47       0.29       0.10
      7.58       0.26      -0.14
      7.38      -0.11       0.20
      7.15      -0.09      -0.09
      7.79       0.27      -0.32
      7.89       0.00      -0.34
      8.24      -0.04      -0.45
      7.81      -0.15      -0.40
      7.79      -0.18      -0.44
      7.78      -0.02      -0.44
      8.92       0.08      -0.39
      8.86       0.05       0.14
      8.53      -0.56      -0.14
      7.14      -0.38       0.40
      7.51      -0.05       0.28
      7.91       0.00       0.38
      7.79      -0.13      -0.03
      7.85       0.11       0.32
      7.73       0.59       0.01
      7.72      -0.13      -0.02
      7.78       0.03       0.11
      7.92       0.72       0.45
      7.95       0.38       0.08
      7.94       0.56       0.26
      7.50       0.75       0.13
      7.08       0.06       0.11
      7.51      -0.05      -0.10
      7.65       0.17       0.06
      7.75      -0.43       0.09
      7.62      -0.35       0.09
      7.29      -0.83      -0.02
      7.21      -0.55      -0.17
      7.44      -0.70      -0.00
      7.49      -0.12       0.35
      7.54       0.11       0.21
      7.60       0.15      -0.36
      7.64       0.55      -0.23
      7.11       0.05      -0.18
      6.83      -0.21       0.13
      7.06      -0.21       0.41
      7.45       0.02       0.02
      7.55      -0.33      -0.29
      7.86      -0.09      -0.18
      7.77       0.14      -0.05
      8.09       0.69      -0.13
      6.92      -0.09       0.13
      7.33       0.15       0.31
      7.17       0.24       0.12
      7.54      -0.01      -0.34
      7.69      -0.09      -0.06
      7.39      -0.28       0.07
      7.09       0.08       0.23
      7.00      -0.28       0.23
      7.62      -0.31      -0.39
      8.34      -0.20      -0.76
      8.48      -0.08      -0.30
      8.11       0.01      -0.32
      8.31       0.28      -0.18
      8.35       0.21      -0.33
      8.32       0.40      -0.07
      7.86      -0.07      -0.50
      8.02       0.37       0.03
      8.67       0.01      -0.23
      7.75      -0.54       0.12
      8.03      -0.31       0.00
      7.61       0.33       0.10
      7.77       0.61      -0.17
      7.87       0.03       0.34
      7.40       0.69      -0.06
      5.16       0.63      -0.21
      4.50       0.73       0.51
      4.61       0.59       0.54
      7.49       0.19       0.39
      7.20       0.21       0.46
      7.47       0.06       0.19
      7.37      -0.15      -0.07
      7.61      -0.35       0.20
      8.13      -0.46      -0.05
      7.67      -0.18      -0.43
      7.14      -0.34       0.43
      7.04       0.07       0.66
      7.27       0.44       0.47
      7.33       0.44       0.06
      7.16       0.23      -0.42
      7.07      -0.02       0.20
      6.78       0.16       0.58
      6.78      -0.36       0.22
      6.84      -0.70      -0.03
      6.82      -0.24      -0.46
      7.08       0.14      -0.11
      7.37       0.30      -0.34
      7.68       0.21      -0.55
      7.32       0.16      -0.21
      6.84       0.47       0.50
      7.44       0.07      -0.08
      7.67       0.19      -0.30
      7.58       0.26       0.00
      7.83       0.23       0.06
      7.78       0.40       0.24
      7.51      -0.40       0.35
      7.84      -0.54      -0.31
      7.73      -0.12      -0.45
      8.08      -0.22      -0.67
      8.29      -0.05      -0.57
      7.26      -0.20      -0.03
      7.82      -0.11      -0.38
      7.41       0.18      -0.37
      6.97       0.23       0.16
      7.20      -0.02       0.55
      7.32      -0.08       0.05
      7.08      -0.38      -0.15
      7.18       0.02       0.34
      7.03       0.11       0.23
      7.12       0.50       0.12
      7.24       0.44       0.26
      7.13       0.74       0.31
      4.44       0.84       0.20
      3.67       0.31       0.84
      3.44       0.16       0.92
      7.59      -0.04       0.46
      7.65       0.28       0.62
      7.47       0.01       0.04
      7.48      -0.13       0.03
      7.47      -0.26       0.28
      7.74       0.01      -0.36
      8.04      -0.09      -0.66
      7.70      -0.06       0.16
      6.95       0.12       0.33
      6.61       0.15       0.15
      7.09       0.17      -0.04
      7.16       0.15       0.07
      7.29       0.19       0.04
      7.32       0.32       0.28
      7.51      -0.03      -0.27
      6.63      -0.08       0.46
      6.21      -0.32       0.21
      6.31      -0.69       0.15
      6.65      -0.59      -0.05
      7.20      -0.29       0.02
      6.69       0.59      -0.19
      6.86       0.11       0.23
      7.23       0.02       0.04
      6.94       0.15      -0.20
      6.93       0.14       0.12
      6.74      -0.20       0.80
      7.88      -0.02       0.27
      7.88      -0.40      -0.35
      7.71      -0.18      -0.45
      7.76      -0.12      -0.74
      7.97      -0.20      -0.50
      7.02      -0.32      -0.14
      6.52       0.27       0.05
      6.64       0.27       0.03
      6.45       0.09       0.24
      7.15      -0.20       0.23
      7.14      -0.33       0.27
      6.98      -0.26       0.14
      6.68      -0.36       0.37
      6.94       0.05       0.29
      6.90       0.19       0.65
      7.03       0.39       0.44
      7.30       0.49       0.30
      7.50       0.64       0.11
      5.00       0.06       0.28
      4.72       0.02       0.57
      5.03       0.15       0.58
      7.78       0.42       0.15
      7.89      -0.31       0.15
      8.00      -0.25       0.02
      7.82      -0.07      -0.18
      7.57      -0.55       0.04
      7.80      -0.26      -0.31
      7.16      -0.06      -0.10
      6.90       0.40       0.52
      6.76       0.35       0.40
      7.53      -0.20       0.15
      7.47      -0.21      -0.09
      7.93      -0.20       0.06
      8.00       0.31      -0.04
      6.86       0.44      -0.05
      6.61       0.03       0.05
      6.44      -0.07       0.46
      6.97      -0.08       0.49
      7.58      -0.33      -0.49
      7.59      -0.32      -0.61
      7.22      -0.56      -0.43
      7.50       0.57       0.05
      8.04       0.31      -0.55
      6.74       0.49       0.28
      7.63       0.49      -0.34
      7.86       0.13      -0.29
      7.92      -0.00      -0.65
      8.35      -0.29      -0.18
      7.24      -0.24       0.49
      6.87      -0.04      -0.05
      6.75      -0.27      -0.34
      6.58      -0.08      -0.09
      6.37      -0.27      -0.17
      6.45       0.23      -0.10
      6.61       0.14       0.16
      6.69      -0.42       0.58
      6.59      -0.67       0.41
      6.73      -0.55       0.21
      7.19      -0.63      -0.07
      7.33      -0.68       0.00
      7.65      -0.40      -0.03
      7.46      -0.05       0.08
      7.15       0.31       0.10
      7.36       0.22       0.23
      7.64       0.03       0.48
      5.51       0.38       0.38
      4.20       0.14       0.39
      4.36       0.41       0.16
      8.02       0.65      -0.34
      8.14       0.25       0.14
      7.45      -0.51       0.21
      7.28      -0.44       0.03
      7.82      -0.21       0.47
      7.15       0.14       0.30
      7.19       0.27       0.04
      7.45       0.23       0.09
      7.61      -0.30      -0.30
      7.96       0.03      -0.33
      6.49      -0.09       0.84
      6.72      -0.37       0.72
      6.91      -0.12       0.50
      6.91       0.64       0.20
      7.17       0.39       0.11
      7.21      -0.14      -0.06
      7.27      -0.16      -0.45
      6.89      -1.03       0.12
      7.49      -0.27       0.06
      6.02      -0.35       0.62
      6.64       0.01       0.87
      6.94       0.11      -0.14
      7.32       0.22      -0.53
      7.55      -0.06      -0.38
      7.48       0.12      -0.59
      7.40       0.02      -0.51
      7.01      -0.21       0.44
      7.51       0.16       0.71
      7.16       0.52       0.20
      6.51       0.32       0.11
      6.88       0.37      -0.46
      6.54       0.27       0.45
      6.99      -0.18       0.02
      6.97      -0.30      -0.33
      7.30      -0.51      -0.71
      7.66      -0.72      -0.63
      7.06      -0.46      -0.25
      7.08      -0.43       0.09
      7.37      -0.42       0.04
      7.21      -0.10      -0.19
      7.33       0.04       0.05
      7.58      -0.00       0.10
      8.02       0.12       0.20
      8.29       0.05       0.02
      4.90       0.27       0.46
      3.88       0.06      -0.10
      3.86      -0.07      -0.20
      8.52       0.37      -0.49
      8.11      -0.16      -0.63
      8.10       0.11      -0.30
      7.47      -0.12      -0.22
      7.64       0.36       0.33
      7.57       0.30       0.34
      8.13       0.22      -0.14
      8.23       0.03      -0.40
      8.50      -0.33      -0.45
      7.52      -0.09       0.03
      7.45      -0.10       0.37
      6.48       0.20       0.81
      6.60       0.19       0.35
      7.13       0.31       0.56
      7.43       0.37      -0.14
      8.19      -0.07      -0.88
      8.24      -0.28      -1.05
      8.02       0.24      -0.90
      6.36       0.31       0.01
      6.98      -0.34      -0.37
      6.50      -0.23       0.14
      6.68       0.62       0.35
      7.22       0.44       0.19
      7.20      -0.01       0.30
      6.77       0.19       0.44
      6.91       0.13       0.38
      7.01      -0.10       0.13
      6.79      -0.20       0.24
      7.43       0.23       0.29
      7.41       0.68      -0.08
      6.88       0.58      -0.49
      6.97       0.46      -0.41
      6.52      -0.19       1.30
      6.14      -0.50       0.75
      7.53      -0.87      -0.42
      6.39      -0.08       0.21
      6.80       0.07      -0.21
      7.44      -0.36       0.09
      7.23      -0.41       0.24
      7.01      -0.03       0.17
      7.63      -0.50       0.12
      7.47      -0.43       0.34
      7.55      -0.01       0.09
      7.64      -0.33      -0.53
      7.69      -0.15      -0.68
      7.61      -0.36      -0.63
      7.31      -0.42       0.21
      7.15      -0.45      -0.24
      6.74      -0.33       0.24
      6.58       0.26       0.60
      6.64      -0.49      -0.00
      7.25      -0.23      -0.21
      7.63      -0.11      -0.22
      7.56      -0.24      -0.59
      7.26       0.02       0.09
      7.57       0.63      -0.17
      7.59       0.16      -0.04
      7.42       0.41       0.66
      7.55      -0.11       0.10
      7.53      -0.38      -0.04
      8.06      -0.10      -0.04
      7.97      -0.18       0.38
      7.95      -0.42       0.02
      8.09      -0.34      -0.58
      8.30       0.04      -0.68
      7.83       0.75       0.22
      7.33       0.18      -0.14
      7.61       0.15      -0.04
      7.92       0.52       0.06
      6.85       0.15       0.13
      6.28       0.55       0.51
      6.73       0.48       0.45
      6.86       0.23       0.29
      6.55       0.10      -0.11
      6.53       0.21       0.20
      6.76      -0.01       0.37
      6.88       0.13       0.37
      7.21       0.40       0.25
      7.03       0.59      -0.06
      6.47      -0.40      -0.05
      6.99      -0.33      -0.36
      7.59      -0.30      -0.63
      7.97      -0.89      -0.82
      7.95      -0.84      -0.50
      8.03      -0.44      -0.48
      7.68      -0.37       0.23
      7.60      -0.07       0.10
      7.88      -0.54      -0.08
      7.64       0.01      -0.13
      7.32      -0.75      -0.06
      7.84      -0.47      -0.24
      7.84      -0.22      -0.20
      7.13      -0.34       0.05
      7.31      -0.36       0.10
      6.91      -0.11       0.32
      5.94       0.02       0.29
      6.13      -0.26       0.34
      6.49      -0.39       0.67
      6.87      -0.41       0.36
      6.59       0.11       0.06
      6.22       0.62       0.19
      6.67       0.59      -0.14
      7.48      -0.11      -0.17
      7.64      -0.22       0.40
      8.02      -0.02       0.37
      7.75      -0.21      -0.15
      7.14      -0.48      -0.12
      6.70      -0.11       0.55
      6.69      -0.44       0.59
      7.27      -0.27       0.10
      7.18      -0.14       0.25
      7.14       0.35       0.47
      7.36       0.08       0.09
      8.32       0.18      -0.40
      8.37       0.59      -0.77
      8.08       0.44      -0.05
      7.78       0.74      -0.03
      7.70       0.45      -0.31
      7.51       0.48      -0.24
      7.33       0.42      -0.29
      7.11       0.54      -0.21
      7.63      -0.19      -0.30
      6.90      -0.07      -0.07
      7.11      -0.18       0.26
      7.50      -0.17       0.43
      7.37       0.10       0.30
      7.99      -0.27      -0.12
      8.00      -0.02      -0.60
      8.14       0.19      -0.72
      8.60      -0.08      -0.85
      8.31      -0.24      -1.01
      8.50      -0.46      -0.70
      8.40      -0.22      -0.45
      8.42      -0.46      -0.21
      8.62      -0.31      -0.09
      6.98       0.29       0.21
      7.06      -0.04       0.19
      7.39      -0.82      -0.34
      7.50      -0.70       0.01
      7.23      -0.13       0.18
      6.99      -0.36      -0.20
      7.21       0.29       0.61
      6.74       0.26       0.37
      6.79       0.01      -0.21
      6.99      -0.31      -0.10
      7.00      -0.27       0.43
      7.03      -0.55       0.67
      7.29       0.19       0.53
      7.60      -0.49       1.02
      7.99      -0.74       0.08
      8.20      -0.59      -0.18
      8.21      -0.25       0.05
      8.39      -0.15      -0.08
      8.74      -0.24      -0.69
      7.71      -0.25      -0.53
      7.38      -0.15      -0.02
      6.61      -0.04       0.85
      6.66       0.19       1.02
      7.00      -0.33       0.44
      7.25      -0.24       0.59
      7.63       0.07       0.07
      7.15       0.33      -0.07
      7.30       0.44      -0.06
      7.41       0.30       0.42
      7.45       0.30       0.16
      7.03       0.52      -0.13
      7.44       0.63      -0.35
      7.78       0.28      -0.43
      7.69       0.05      -0.24
      7.64       0.05      -0.11
      8.08      -0.07      -0.56
      7.80      -0.26      -0.21
      7.77      -0.50      -0.10
      7.52      -0.59       0.41
      7.52      -0.08       0.05
      8.00       0.21      -1.12
      8.64      -0.08      -0.29
      7.62      -0.39      -0.02
      7.92      -0.33      -0.57
      8.49      -0.25      -0.74
      8.18      -0.38      -0.61
      8.30      -0.10      -0.33
      8.75      -0.04       0.10
      8.25      -0.45      -0.24
      8.16      -0.23      -0.41
      7.59      -0.22      -0.21
      7.76      -0.02      -0.04
      6.99      -0.47       0.58
      7.39       0.17       0.14
      6.87       0.24       0.31
      6.49      -0.20       0.70
      7.28      -0.77       0.66
      7.78      -1.05       0.40
      7.99      -0.50       0.28
      8.17      -0.23       0.09
      7.70      -0.54      -0.39
      7.58      -0.79       0.23
      7.72      -0.74       0.22
      8.06      -0.32      -0.50
      8.85      -0.11      -0.46
      9.00       0.18      -0.85
      8.21       0.18      -0.73
      8.18      -0.22      -0.94
      7.20       0.14       0.04
      7.65       0.04       0.46
      7.46      -0.28       0.24
      7.19      -0.26       0.07
      7.28      -0.17       0.31
      7.44       0.08       0.45
      7.41       0.16       0.57
      7.33      -0.19       0.32
      7.60      -0.00       0.27
      7.79       0.06      -0.21
      8.13       0.15      -0.44
      8.20       0.25      -0.29
      7.92       0.32       0.10
      7.67       0.06       0.06
      7.52       0.04      -0.19
      7.65      -0.32      -0.28
      7.89      -0.42      -0.17
      8.23      -0.65       0.16
      7.23      -0.27       0.47
      7.67       0.38      -0.38
      7.62       0.26       0.07
      7.90      -0.27      -0.57
      8.21      -0.11      -0.75
      7.59       0.32      -0.19