# vtk DataFile Version 3.0
Low resolution, disturbed wind of YZ Slice at time = 36 seconds.
ASCII
DATASET STRUCTURED_POINTS
DIMENSIONS     1    26    12
ORIGIN    1882.00     635.00      15.00
SPACING      30.00      30.00      30.00
POINT_DATA             312
VECTORS DisYZ float
      5.76       1.26       0.04
      5.75       0.32      -0.37
      4.47       0.69      -0.03
      5.00       0.32       0.65
      4.43      -0.47       0.47
      5.55      -0.26      -0.19
      6.41      -0.21      -0.05
      6.30       0.43      -0.57
      5.60       0.41       0.16
      5.49       0.21      -0.35
      4.77      -0.20       0.46
      5.83      -0.28      -0.41
      5.88       0.02      -0.34
      5.23      -0.18       0.44
      5.34      -0.37      -0.65
      5.76       0.32      -0.37
      4.97      -0.22      -0.00
      5.57       0.08       0.12
      5.59       0.80      -0.18
      5.20       0.46       0.30
      5.73       0.42      -0.11
      6.97       0.34       0.20
      5.73       0.16      -0.11
      5.26      -0.14       0.34
      6.91       0.62      -0.63
      7.56       0.46      -0.06
      6.75      -0.42      -0.39
      7.04      -0.04      -0.10
      6.75       0.23      -0.06
      6.84      -0.47       0.65
      5.83       0.45       0.31
      6.66      -0.05       0.42
      6.58      -0.17       0.17
      6.93      -0.33      -0.41
      6.40      -0.76      -0.14
      5.73      -0.26      -0.12
      5.79      -0.18       0.17
      7.13       0.74      -0.66
      7.01       0.35      -0.25
      6.75       0.71       0.13
      6.05       0.29       0.05
      6.48       0.07      -0.25
      7.37       0.44      -0.75
      5.90       0.64       0.40
      6.99      -0.05       0.26
      5.75       0.04       0.26
      7.31       0.02       0.30
      7.15       0.64       0.31
      7.88       0.70       0.06
      7.51       0.63      -0.16
      7.64       0.22      -0.50
      8.09       0.04      -0.39
      6.33      -0.05      -0.27
      7.15      -0.25       0.08
      7.05      -0.79       0.54
      7.03      -0.27       0.69
      7.80       0.26       0.44
      6.89       0.10       0.15
      6.76       0.10      -0.01
      7.35      -0.43      -0.06
      7.74      -0.37       0.29
      7.25       0.01       0.29
      6.94       0.26       0.04
      6.90       0.39       0.15
      6.90       0.22      -0.24
      6.38      -0.12       0.38
      6.27      -0.50       0.14
      7.12       0.59       0.15
      6.94       0.70       0.37
      7.28      -0.04       0.10
      7.20       0.22       0.23
      7.51       0.26       0.35
      8.13       0.23      -0.12
      7.89       0.40      -0.12
      7.98       0.88       0.18
      7.78       0.05      -0.12
      8.47      -0.44      -0.00
      8.79      -0.51       0.14
      7.42       0.13       0.54
      7.60      -0.32      -0.42
      7.65      -0.51       0.27
      7.88      -0.52       0.23
      7.47      -0.37       0.62
      7.90      -0.22       0.11
      7.69      -0.46       0.07
      8.41      -0.24      -0.10
      8.31      -0.32      -0.25
      7.57      -0.46       0.37
      7.74       0.19       0.18
      6.93      -0.31       0.26
      8.14      -0.37      -0.09
      6.14      -0.58       0.87
      8.90      -0.05      -0.77
      7.62       0.82       0.44
      8.16       0.97       0.30
      8.21       0.04       0.20
      8.05      -0.30      -0.14
      7.85      -0.11       0.11
      8.03       0.58      -0.02
      7.95       0.36       0.01
      7.87       0.09       0.19
      8.90      -0.41       0.61
      8.96      -0.71       0.11
      8.97      -0.57       0.03
      7.17       0.20       0.77
      8.10      -0.02       0.31
      8.32      -0.40       0.02
      8.34      -0.33      -0.16
      8.44       0.04       0.23
      8.01       0.11       0.29
      8.18       0.03       0.49
      8.78      -0.62       0.03
      8.84      -0.56      -0.06
      8.87      -0.48      -0.24
      8.56      -0.24      -0.06
      7.93      -0.07       0.17
      8.67      -0.53       0.23
      9.08      -0.68       0.49
      9.38      -0.47      -0.98
      8.70      -0.44      -0.58
      8.86      -0.72       0.12
      8.42      -0.76       0.17
      8.19      -0.40       0.07
      8.78      -0.14      -0.11
      8.20       0.14      -0.02
      8.54       0.03       0.04
      8.23      -0.02       0.38
      9.03      -0.15       0.84
      8.84      -0.24       0.24
      9.04      -0.57      -0.14
      8.70       0.19       0.04
      8.39       0.12       0.35
      8.03       0.28       0.20
      8.17       0.15      -0.06
      8.11      -0.07       0.42
      8.33      -0.01       0.33
      8.19       0.11       0.43
      9.14      -0.18       0.01
      8.90      -0.21       0.41
      9.01      -0.79      -0.33
      8.78      -0.74      -0.69
      8.49      -0.62       0.50
      8.29      -0.42       0.18
      8.79      -0.31       0.20
      9.29      -0.87      -0.02
      9.43      -0.72      -0.75
      8.95      -0.32      -0.05
      8.63      -0.73      -0.18
      8.82      -0.98       0.14
      9.10      -0.74      -0.04
      9.35      -0.60      -0.21
      9.07      -0.40      -0.06
      8.93      -0.13       0.05
      8.93       0.35       0.56
      9.22       0.23       0.31
      9.47      -0.53       0.26
      9.22      -0.20       0.53
      8.54      -0.01       0.53
      8.20       0.25       0.05
      8.61       0.41      -0.06
      8.56       0.33       0.47
      8.79       0.58       0.43
      8.60       0.34       0.54
      8.72       0.31       0.66
      8.69       0.28       0.43
      9.54      -0.22       0.01
      9.10      -0.11      -0.51
      8.72      -0.56       0.03
      9.06      -0.63       0.16
      9.26      -0.63       0.10
      9.56      -0.36      -0.14
      9.89      -0.32      -0.54
      9.57      -0.45      -0.37
      9.02      -0.59       0.12
      9.60      -0.37       0.47
      9.54      -0.67      -0.18
      9.34      -0.71      -0.00
      9.03      -0.74      -0.12
      9.08      -0.52      -0.17
      9.18      -0.32       0.42
      9.21      -0.62       0.65
      9.38      -0.48       0.22
      8.84      -0.19       0.44
      8.74      -0.26       0.33
      8.78      -0.22       0.29
      8.78      -0.05       0.22
      8.67       0.41       0.59
      8.49       0.56       0.51
      8.65       0.38       0.88
      8.49       0.33       0.74
      8.76       0.34       0.96
      9.11      -0.10      -0.08
      8.70      -0.82      -0.45
      9.13      -0.40      -0.12
      9.05      -0.35       0.13
      9.41      -0.07      -0.47
     10.08      -0.28      -0.55
      9.81      -0.62      -0.42
      9.64      -0.87      -0.35
      9.21      -0.79      -0.23
      9.59      -0.81       0.03
      9.60      -0.59       0.14
      9.45      -0.56       0.12
      9.39      -0.46      -0.38
      9.17      -0.51      -0.13
      9.22      -0.83       0.25
      9.05      -0.93       0.57
      9.37      -0.43       0.07
      8.86      -0.08       0.33
      8.75      -0.37       0.36
      9.31      -0.17       0.13
      9.32      -0.05       0.50
      8.83       0.22       0.49
      8.97       0.36       0.58
      8.49       0.19       1.24
      8.42      -0.11       0.86
      8.76      -0.11       0.60
      8.91       0.14       0.17
      9.13      -0.85       0.08
      9.41      -0.69      -0.21
      9.46      -0.43      -0.34
     10.05      -0.31      -0.52
      9.86      -0.64      -0.25
      9.82      -0.67      -0.28
      9.83      -0.79      -0.19
      9.50      -0.69       0.04
      8.98      -0.50       0.37
      9.12      -0.69       0.51
      9.30      -0.70       0.18
      9.61      -0.52      -0.18
      9.30      -0.52       0.27
      9.27      -0.79      -0.03
      9.43      -0.33      -0.05
     10.08      -0.24      -0.63
      9.17      -0.47       0.71
      8.97      -0.52       0.76
      9.40      -0.58       0.41
      9.07      -0.40       0.56
      9.32      -0.17      -0.10
      8.60      -0.36       0.86
      9.13      -0.16       0.57
      9.04       0.39       0.53
      8.99      -0.12       0.28
      8.85      -0.34       0.48
      9.57      -0.22       0.14
      9.74      -0.31      -0.22
     10.16      -0.36      -0.31
     10.02      -0.56      -0.53
      9.86      -0.71      -0.05
      9.68      -0.62      -0.23
      8.96      -0.57      -0.21
      9.09      -0.78       0.28
      9.08      -0.95       0.57
      9.44      -0.99       0.05
      9.59      -0.85       0.37
     10.12      -0.70       0.03
      9.54      -0.47       0.22
      9.71      -0.28      -0.20
     10.26       0.12      -0.82
      9.74      -0.43      -0.10
      9.30      -1.00       1.14
      9.17      -0.82       0.47
      9.47      -0.65       0.38
      9.86      -0.67       0.24
      9.63      -0.71       0.32
     10.27      -0.36       0.26
      9.83       0.02       0.30
      8.96      -0.32       0.36
      9.35      -0.49       0.64
      9.53      -0.50       0.42
      9.59      -0.34       0.24
     10.03      -0.23       0.06
     10.43      -0.54      -0.38
      9.84      -0.83      -0.18
      9.38      -0.97      -0.05
      9.63      -0.74      -0.20
     10.02      -0.72      -0.24
      9.76      -0.65       0.24
      9.73      -0.66       0.27
      9.54      -0.56       0.11
      9.76      -0.70       0.18
      9.65      -0.66       0.03
      9.90      -0.45      -0.16
      9.85      -0.67      -0.06
     10.09      -0.97      -0.51
     10.26      -1.20       0.11
      8.93      -0.60       0.63
      9.24      -0.30       0.22
     10.02      -0.55       0.11
      9.98      -0.82       0.28
     10.31      -0.84       0.22
      9.57      -0.31       0.15
      9.54      -0.23       0.34
      9.44      -0.56       0.70
      9.54      -0.91       0.29
      9.38      -0.62       0.16
      9.60      -0.34       0.09
     10.07      -0.57      -0.01
      9.87      -0.71      -0.14
      9.62      -0.91      -0.14
      9.92      -1.13       0.15
      9.78      -0.80      -0.09
      9.81      -0.82      -0.11
      9.98      -0.69       0.18
      9.74      -0.78       0.28
      9.99      -0.90      -0.06
     10.20      -0.93      -0.01
      9.94      -0.63       0.41
     10.22      -0.92      -0.28
     10.17      -0.49      -0.47
     10.81      -0.83      -0.50
     10.52      -0.75       0.06
