# vtk DataFile Version 3.0
Low resolution, disturbed wind of YZ Slice at time = 24 seconds.
ASCII
DATASET STRUCTURED_POINTS
DIMENSIONS     1    26    12
ORIGIN    2008.00     635.00      15.00
SPACING      30.00      30.00      30.00
POINT_DATA             312
VECTORS DisYZ float
      7.36       0.39      -0.13
      5.59       0.18       0.00
      5.10      -0.19       0.57
      6.11      -0.03       0.06
      4.45      -0.02       0.23
      5.99       0.17      -0.17
      6.25       0.30      -0.00
      6.51      -0.54      -0.66
      4.14       0.49       0.25
      5.15       0.32       0.01
      5.33      -0.06      -0.20
      5.89       0.87       0.32
      4.25       0.15       0.55
      5.10       0.43      -0.19
      5.05       0.52       0.43
      4.02      -0.55      -0.15
      4.96      -0.01       0.23
      6.23      -0.14      -0.63
      5.88      -0.49      -0.09
      6.20       0.30      -0.12
      7.43      -0.20      -0.12
      4.87      -0.35       0.47
      5.51      -0.07      -0.11
      7.27       0.12      -0.07
      6.32      -0.69       0.49
      6.14       0.43       0.16
      7.39       0.60      -0.31
      5.76      -0.03      -0.25
      6.59       0.80      -0.39
      6.86       1.27      -0.22
      5.62       1.24       0.29
      6.64       0.70      -0.17
      6.87       0.12      -0.08
      6.57       0.43       0.15
      6.53       0.39       1.31
      6.48       1.63       0.35
      6.41       0.37       0.37
      7.28       0.51      -0.84
      5.87      -0.17      -0.05
      5.88      -0.27      -0.06
      6.85       0.85      -0.09
      5.64       0.60       0.35
      6.15       0.09      -0.07
      6.67      -0.47      -0.26
      6.61      -0.10       0.00
      7.25       0.10      -0.26
      6.76      -0.14      -0.04
      8.12      -0.12      -0.35
      7.70      -0.25      -0.19
      6.95       0.08       0.09
      7.74       0.43      -0.19
      7.11       0.17       0.32
      8.25       0.78       0.19
      6.69       0.37      -0.01
      7.47       0.44      -0.03
      7.97       0.64       0.11
      7.58       0.60       0.13
      6.26       0.97       0.54
      7.04       0.36       0.47
      7.71       0.22       0.00
      7.90       0.33      -0.11
      7.00       0.42       0.10
      7.05       0.88       0.65
      7.89      -0.37      -0.01
      7.34      -0.09       0.26
      7.17      -0.64      -0.13
      6.58      -0.15       0.28
      6.16       0.03       0.11
      6.85       0.23      -0.43
      7.37       0.01      -0.29
      7.82       0.54       0.05
      7.01       0.32       0.12
      7.75      -0.23      -0.14
      8.54      -0.34      -0.31
      8.75      -0.42      -0.42
      8.19      -0.26       0.30
      8.63      -0.07       0.05
      7.80       0.32       0.23
      8.00      -0.17       0.07
      7.57       0.18       0.09
      7.82       0.02      -0.26
      7.04       0.37      -0.03
      6.83       0.30       0.43
      6.96       0.30       0.81
      7.20       0.34       0.25
      7.98       0.13      -0.64
      8.18      -0.15      -0.11
      7.48      -0.21       0.29
      8.07      -0.04       0.24
      8.24      -0.03       0.00
      8.52      -0.58      -0.79
      7.75       0.16       0.42
      7.51       0.07       0.11
      7.47       0.36      -0.26
      6.99       0.57       0.07
      8.29       0.48      -0.46
      8.50      -0.02      -0.40
      7.65       0.02       0.44
      7.99       0.25      -0.50
      9.22      -0.56      -0.22
      9.16      -0.77      -0.38
      8.70      -0.45       0.01
      8.52      -0.29      -0.15
      8.33       0.08       0.16
      7.71      -0.15       0.40
      7.91      -0.76       0.02
      8.75       0.02       0.02
      7.98       0.34       0.33
      7.76       0.40       0.63
      7.93       0.54       0.25
      7.64       0.71       0.49
      7.97       0.69       0.39
      8.15      -0.17       0.30
      8.59      -0.16       0.17
      8.76      -0.17       0.02
      8.68      -0.24      -0.34
      9.48       0.23      -0.49
      8.42       0.13       0.26
      8.07       0.36       0.26
      8.07       0.58       0.06
      7.46       0.53      -0.00
      8.55      -0.07       0.07
      8.12      -0.20      -0.09
      7.75       0.10       0.27
      8.61       0.01      -0.10
      8.83       0.01      -0.08
      9.06      -0.11      -0.18
      9.25       0.02      -0.35
      9.07       0.42       0.02
      9.42       0.37      -0.31
      7.38       0.05       0.62
      9.07      -0.16      -0.33
      8.29      -0.17      -0.02
      8.69      -0.16       0.04
      7.83      -0.04       0.25
      7.49      -0.03      -0.11
      7.42       0.36       0.21
      7.81       0.14       0.45
      9.05       0.05       0.05
      8.55       0.33       0.30
      8.71      -0.07      -0.17
      9.35      -0.02      -0.20
      9.07       0.33      -0.04
      8.49      -0.03       0.31
      9.45       0.18       0.01
      8.83       0.69       0.05
      8.17       0.41       0.48
      8.15      -0.04       0.20
      8.21      -0.05      -0.11
      8.73       0.00      -0.21
      8.85       0.28       0.03
      9.36       0.53      -0.43
      9.27       0.35      -0.42
      9.64       0.34      -0.46
      9.47       0.34      -0.06
      9.14       0.30      -0.11
      8.14      -0.18       0.19
      8.75      -0.48      -0.04
      8.20      -0.32      -0.07
      8.29      -0.04       0.14
      7.77      -0.02       0.07
      8.21      -0.07       0.03
      8.72      -0.15       0.22
      9.01      -0.16      -0.02
      9.02      -0.07       0.06
      8.99      -0.02       0.37
      9.44      -0.10       0.11
      9.47      -0.17       0.09
      9.73      -0.24      -0.08
      9.38      -0.13      -0.01
      9.44       0.03       0.04
      9.43       0.47       0.04
      8.83       0.50       0.45
      9.11       0.72       0.43
      8.05       0.66       0.37
      8.78       0.11      -0.24
      8.96      -0.01       0.02
      9.14       0.04      -0.35
      9.27      -0.16      -0.37
      9.18      -0.49      -0.51
      9.37      -0.35      -0.41
      9.97      -0.54      -0.01
      8.28      -0.45       0.25
      8.45      -0.57       0.34
      9.37      -0.86       0.14
      9.14      -0.30       0.03
      8.43      -0.03       0.10
      9.46      -0.03       0.15
      9.44       0.25       0.32
      9.30      -0.18       0.08
      9.01      -0.01      -0.09
      8.42      -0.02       0.49
      9.47      -0.15       0.15
      9.59      -0.33       0.26
      9.62      -0.76       0.56
      9.70      -0.46       0.22
      9.53      -0.48      -0.07
      9.39       0.14      -0.05
      9.36       0.11       0.41
      9.11      -0.13       0.36
      8.90      -0.18       0.34
      8.94      -0.02       0.07
      9.27      -0.51      -0.19
      9.37      -1.14      -0.00
      9.46      -0.72      -0.33
      9.55      -1.00      -0.10
      9.51      -0.67      -0.66
     10.06      -0.92       0.05
      8.83      -0.78       0.37
      9.41      -0.48       0.24
      9.67      -0.62      -0.31
      8.66      -0.58      -0.06
      9.32      -0.19      -0.28
      9.20       0.44       0.10
      8.98       0.36       0.19
      9.08      -0.19       0.27
      9.17      -0.51       0.25
      9.75      -0.86      -0.01
      9.61      -0.68       0.27
      9.47      -0.65       0.48
     10.09      -0.86       0.19
      9.69      -0.38       0.08
      9.32      -0.19      -0.06
      8.71      -0.79      -0.17
      8.84      -0.50       0.37
      9.04      -0.27       0.28
      9.11      -0.86       0.32
      9.34      -1.14      -0.10
      9.53      -0.76      -0.24
     10.01      -1.22       0.14
      9.68      -1.00      -0.19
      9.43      -1.07      -0.32
      9.47      -1.13      -0.20
      9.45      -1.43      -0.14
      8.50      -0.21       0.37
      8.99      -0.52       0.11
      9.55      -0.43      -0.17
      9.31      -0.62      -0.11
      9.65      -0.55      -0.49
      9.37      -0.95      -0.15
      9.30      -0.76       0.62
      9.54      -1.08       0.18
      9.62      -1.02       0.34
      9.95      -0.89      -0.19
      9.95      -1.06      -0.11
     10.08      -0.85      -0.02
     10.48      -0.70      -0.31
     10.25      -0.52       0.09
     10.04      -0.56      -0.24
      9.20      -0.91      -0.09
      9.24      -1.13      -0.17
      9.14      -1.51       0.57
      9.52      -1.76       0.35
      9.32      -1.29      -0.16
     10.06      -0.95      -0.17
     10.16      -1.05      -0.22
     10.03      -1.22       0.22
      9.47      -1.10      -0.39
     10.18      -1.24      -0.51
      9.47      -1.08      -0.32
      8.78      -0.39       0.43
      9.21      -0.27       0.09
      9.50      -0.03       0.00
      9.73      -0.27       0.00
      9.83      -0.24      -0.34
      9.15      -0.65       0.25
      9.76      -0.85      -0.09
      9.87      -0.84       0.17
     10.33      -0.90       0.01
     10.14      -0.64      -0.34
     10.07      -0.69      -0.09
     10.35      -0.55      -0.08
     10.39      -0.55      -0.07
     10.22      -0.55      -0.26
     10.25      -0.85       0.04
      9.44      -0.91       0.12
      9.58      -1.39       0.15
      9.31      -1.65       0.50
      9.12      -1.27       0.09
      9.21      -1.08      -0.38
      9.99      -1.18      -0.37
     10.23      -0.93      -0.59
     10.00      -1.03       0.08
      9.53      -1.14      -0.11
      9.98      -0.77      -0.30
     10.13      -1.08      -0.45
      9.39      -0.43       0.04
      9.27      -0.37       0.16
     10.10      -0.66       0.08
     10.03      -0.77      -0.27
      9.55      -0.82      -0.25
      8.64      -0.51       0.22
      9.17       0.01       0.05
      9.65       0.06      -0.18
     10.29      -0.39       0.26
     10.38      -0.51      -0.16
     10.14      -0.58      -0.13
     10.38      -0.85      -0.17
     10.05      -0.83       0.03
     10.06      -0.55       0.16
      9.73      -0.45       0.22
     10.03      -0.53       0.25
      9.20      -0.62       0.52
      9.67      -0.89       0.17
      9.46      -0.73       0.01
      9.27      -0.71      -0.01
     10.08      -0.94      -0.25
     10.04      -1.13       0.11
     10.12      -1.15      -0.07
     10.44      -0.83      -0.18
      9.66      -0.92       0.10
     10.21      -1.02       0.07
