# vtk DataFile Version 3.0
Low resolution, disturbed wind of XZ Slice at time = 21 seconds.
ASCII
DATASET STRUCTURED_POINTS
DIMENSIONS    47     1    12
ORIGIN     635.00    1000.00      15.00
SPACING      30.00      30.00      30.00
POINT_DATA             564
VECTORS DisXZ float
      4.29      -0.23       0.08
      4.27      -0.83      -0.30
      4.24      -0.04       0.01
      4.62      -0.33       0.10
      4.79       0.04      -0.18
      4.48       0.57       0.09
      5.31       0.42      -0.18
      5.12      -0.09      -0.17
      3.94       0.80       0.66
      5.03       0.18      -0.11
      5.09       0.72      -0.14
      5.72       0.05      -0.31
      4.62       0.20       0.91
      5.46       1.06      -0.20
      5.69      -0.30      -0.26
      5.10      -0.21       0.39
      4.77       1.23       1.24
      2.59      -0.34       0.87
      4.15       0.01      -0.36
      5.28      -0.46       1.01
      4.98      -0.56      -0.99
      4.38      -0.24      -0.00
      4.79      -0.13       0.24
      3.38      -0.41       0.27
      4.81       0.98      -0.23
      5.10       0.53      -0.52
      4.45      -0.00      -0.10
      5.06       0.00      -0.50
      4.80       0.68      -0.70
      4.75      -0.36      -0.53
      4.22       0.74       0.06
      3.98      -1.02       0.14
      5.00       0.32      -0.13
      5.05       0.77      -0.19
      4.87       0.35      -0.35
      5.11       0.67      -0.27
      6.07       1.11      -0.36
      5.90       0.47      -0.23
      5.89       0.57      -0.85
      4.32       0.17       0.54
      4.44       0.29       0.48
      5.01       0.35      -0.26
      5.57       0.27      -0.84
      4.37       0.26       1.15
      6.02      -0.19      -0.03
      4.43      -0.65       0.48
      4.75       0.22      -0.09
      5.29      -0.31       0.27
      5.51      -0.21       0.19
      6.07       0.37       0.05
      6.19       0.62      -0.06
      5.85       0.40      -0.09
      5.91       0.00       0.16
      6.18       0.09       0.04
      6.48       0.23      -0.28
      5.60      -0.52       0.00
      5.91      -0.27       0.10
      6.39       0.11       0.11
      6.84      -0.02      -0.03
      2.59       0.35       0.38
      2.35       0.74       0.10
      3.07       0.04       0.32
      3.10       0.12       0.08
      2.45      -0.49       1.04
      1.93      -0.62       0.78
      6.26      -0.25      -0.02
      6.08      -0.42       0.81
      6.88      -0.70      -0.09
      6.84      -0.61      -0.01
      6.59      -0.53       0.83
      5.60      -0.54       0.36
      5.66      -0.15      -0.34
      6.10       1.04       0.03
      6.33       0.23       0.62
      6.57       0.44       0.28
      5.67       0.11       0.30
      6.25       0.62      -0.22
      6.61      -0.11       0.13
      6.04       0.48      -0.00
      6.84       0.50       0.08
      5.84       0.20       0.42
      5.60      -0.36      -0.04
      6.36      -0.21      -0.93
      7.24      -0.04      -0.12
      7.44      -0.17      -0.96
      7.01       1.17      -0.48
      6.10       0.19      -0.09
      6.22       0.53       0.74
      5.79       0.32       0.73
      6.82       0.09      -0.65
      6.99       0.41      -0.51
      6.98      -0.20      -0.32
      5.20       0.16       0.96
      6.15       0.22       0.27
      5.92       0.00       0.84
      6.31       0.06       0.51
      6.49       0.22       0.31
      6.85       0.23      -0.03
      6.85       0.43       0.10
      6.43       0.29       0.11
      6.70      -0.21       0.10
      6.52      -0.18       0.38
      6.64      -0.11       0.22
      6.39      -0.24       0.02
      6.83      -0.02       0.11
      7.15       0.11       0.24
      3.32       0.17       0.81
      3.97       0.43       0.60
      4.19       0.21       0.85
      4.07       0.48       0.34
      4.01      -0.29       0.81
      4.40      -0.47       0.63
      7.55      -0.12       0.38
      7.38      -0.27       0.38
      7.55      -0.33       0.07
      7.35      -0.30      -0.04
      7.54      -0.35       0.10
      7.44      -0.47       0.13
      6.84       0.15      -0.43
      6.68       0.29       0.04
      6.24       0.38       0.83
      6.91      -0.07       0.37
      7.05      -0.11       0.05
      7.14      -0.45       0.38
      7.75       0.04       0.36
      7.45       0.38      -0.08
      6.72       0.26      -0.24
      6.34       0.10       0.21
      6.41       0.39       0.32
      6.88      -0.62       0.09
      7.32      -0.57      -0.46
      7.63      -0.48      -0.73
      6.94       0.66       0.15
      6.98       1.24      -0.14
      7.01       0.42      -0.06
      6.33       0.89       0.18
      7.59       0.38      -0.82
      7.70      -0.14      -0.38
      7.39       0.20      -0.45
      6.92      -0.12       0.43
      6.80      -0.18       0.27
      7.85      -0.12       0.52
      7.86       0.22       0.11
      7.94       0.53       0.24
      6.71       0.36       0.15
      6.20      -0.05       0.16
      6.08       0.40       0.56
      7.01       0.03       0.53
      7.10      -0.20       0.18
      7.45      -0.60       0.20
      7.85      -0.56       0.03
      7.23      -0.71       0.36
      7.05      -0.57       0.41
      7.09      -0.04       0.68
      4.37       0.46       0.75
      4.50       0.42       0.68
      4.39       0.37       0.59
      4.68       0.61       0.35
      4.89       1.35       0.29
      7.85       1.01       0.07
      8.10       0.58       0.06
      8.51      -0.04       0.18
      7.68       0.33       0.31
      8.22      -0.12       0.00
      8.45      -0.11      -0.05
      8.52      -0.17      -0.16
      8.03       0.44       0.02
      7.33       0.29       0.39
      7.21       0.11       0.42
      8.54      -0.46       0.13
      7.93      -0.02      -0.27
      8.15      -0.15       0.04
      8.66      -0.19       0.28
      7.26       0.36      -0.62
      7.11       0.18       0.79
      7.26       0.30      -0.20
      8.18      -0.41      -0.48
      8.53      -0.44      -0.16
      7.52      -0.25      -0.36
      7.22      -0.63       0.15
      8.04      -0.53      -0.13
      8.10      -0.26      -0.62
      7.82      -0.11      -0.07
      7.78       0.41       0.11
      8.02       0.58      -0.21
      8.18       0.22      -0.46
      8.49      -0.73      -0.65
      8.40      -0.15       0.20
      7.19      -0.49       0.76
      7.46       0.25       0.69
      6.86      -0.03       0.68
      6.43      -0.29       0.28
      6.52      -0.09      -0.01
      7.05      -0.05      -0.17
      7.29      -0.04       0.37
      7.44      -0.24       0.23
      7.28      -0.46       0.20
      7.27      -0.66       0.00
      7.43      -0.50       0.45
      6.92      -0.23       0.60
      7.30      -0.03       0.40
      3.13      -0.05       0.71
      3.49      -0.09       0.89
      3.82      -0.11       0.68
      4.10      -0.04       0.39
      4.05       0.22       0.25
      8.39       0.74      -0.02
      8.11       0.70      -0.04
      8.34       0.55       0.28
      8.46       0.34       0.64
      8.47      -0.23      -0.07
      8.57      -0.02      -0.06
      8.26       0.09       0.03
      8.16       0.00       0.31
      8.21       0.19       0.16
      8.43      -0.02       0.02
      8.82      -0.27      -0.42
      9.18       0.07       0.16
      7.90      -0.32       0.09
      7.89      -0.08       0.09
      7.75      -0.00       0.44
      7.70      -0.53       0.68
      7.96      -0.92       0.06
      7.98      -0.46       0.40
      8.06      -0.41       0.19
      8.32      -0.39       0.50
      8.35      -0.59       0.13
      8.46      -0.94      -0.15
      8.47      -0.94      -0.07
      8.41      -0.31       0.10
      8.90      -0.17      -0.04
      8.50      -0.11      -0.23
      9.01       0.02      -0.07
      9.29       0.19      -0.31
      7.70      -0.40       0.36
      7.60      -0.58       0.72
      7.24      -0.00       0.87
      7.34       0.29       0.76
      7.85       0.49      -0.05
      7.84      -0.09      -0.62
      8.19       0.34      -0.82
      7.88       0.23      -0.17
      7.26      -0.08       0.47
      7.41       0.28       0.54
      7.78       0.03       0.49
      7.93      -0.12       0.56
      8.19      -0.03       0.29
      8.13       0.10       0.29
      6.88       0.18      -0.36
      6.73      -0.16      -0.10
      6.30       0.01       0.23
      6.56      -0.41       0.32
      6.94      -0.42       0.10
      8.03       0.25       0.01
      8.69       1.11       0.58
      8.37       0.64       0.65
      8.51       0.06       0.45
      8.64      -0.06       0.04
      8.62      -0.06       0.11
      9.00      -0.16      -0.11
      9.16       0.00       0.05
      8.86       0.41      -0.24
      8.90       0.49      -0.13
      8.72       0.08      -0.08
      8.58      -0.42       0.11
      8.26      -0.01       0.17
      8.01       0.03       0.24
      7.88       0.13       0.45
      7.81       0.03       0.32
      7.82       0.03       0.55
      8.18      -0.89       0.58
      8.49      -0.68       0.30
      8.07      -0.53       0.30
      8.28      -0.48       0.21
      8.35      -0.80       0.03
      8.47      -0.65       0.30
      8.75      -0.48       0.21
      8.83      -0.37       0.01
      9.12      -0.39       0.00
      9.03       0.18      -0.22
      8.94       0.17      -0.04
      8.44      -0.29       0.74
      7.96       0.01       0.83
      8.63       0.42       0.99
      8.60      -0.22       0.05
      8.80      -0.34      -0.70
      8.44      -0.74      -0.54
      8.41       0.17      -0.65
      8.72      -0.15      -0.34
      8.60      -0.06       0.49
      8.14      -0.27       0.47
      8.22       0.00       0.79
      8.25      -0.15       0.60
      8.65      -0.54       0.23
      8.43      -0.71      -0.18
      8.86      -0.94      -0.55
      8.77      -0.46       0.09
      8.48       0.14       0.09
      8.62       0.11      -0.15
      9.10       0.25      -0.29
      9.26       0.33      -0.10
      9.62       0.39       0.04
      9.23       1.19       0.45
      9.24       0.80       0.49
      9.75      -0.09      -0.02
      9.23      -0.27       0.05
      9.16      -0.15       0.11
      8.83      -0.36       0.22
      8.78      -0.38      -0.09
      9.29      -0.50      -0.40
      9.23       0.13      -0.33
      8.65      -0.05       0.65
      8.43      -0.20       0.13
      8.70      -0.07      -0.02
      9.20       0.19       0.35
      8.82       0.18       0.50
      8.30       0.05       0.54
      8.56      -0.37      -0.32
      8.83      -0.75      -0.08
      8.90      -0.62       0.07
      9.12      -0.37       0.07
      9.12      -0.61      -0.01
      8.94      -0.82      -0.10
      9.17      -0.83       0.04
      9.78      -0.71      -0.09
      9.75      -0.82      -0.18
      9.46      -0.80      -0.13
      9.58      -0.30      -0.11
      9.01       0.05       1.05
      8.67      -1.55       0.78
      9.27      -1.71       0.44
      9.19      -1.43      -0.18
      9.92      -1.12      -0.60
      9.01      -0.68      -0.12
      8.48       0.18       0.16
      8.64      -0.40       0.25
      8.21      -0.93       0.31
      8.08      -0.59       0.46
      8.22      -0.36       0.56
      8.79      -0.75       0.49
      9.42      -0.87       0.48
      9.68      -0.48      -0.04
      8.93      -1.03       0.04
      8.53      -1.47       0.22
      8.31      -1.50       0.03
      7.97      -1.09      -0.10
      7.96      -1.03      -0.16
      8.42      -0.94      -0.05
      8.78      -0.34       0.31
      9.00      -0.18       0.71
      9.08      -0.51       0.59
      9.19      -0.24       0.40
      8.90      -0.31       0.39
      8.73      -0.75       0.34
      8.81      -0.88       0.24
      8.81      -0.83      -0.42
      8.91      -0.59      -0.47
      9.12      -0.11      -0.24
      9.30      -0.16       0.23
      9.70      -0.25       0.07
      9.85       0.07      -0.20
      9.29      -0.17       0.08
      8.90       0.07       0.54
      9.22       0.26       0.24
      9.29      -0.00      -0.34
      9.31      -0.29      -0.31
      8.97      -0.26       0.04
      9.13      -0.59       0.16
      9.65      -0.99      -0.03
      9.64      -1.27      -0.19
      9.41      -0.92       0.03
      9.35      -0.59       0.11
      9.45      -0.70      -0.08
      9.71      -0.80       0.10
      9.68      -0.69       0.59
      9.63      -0.17       0.66
      8.69      -0.65       0.57
      8.74      -0.97       0.45
      9.16      -0.91       0.22
      9.23      -0.23       0.12
      9.32      -0.12       0.09
      8.88      -0.36       0.14
      8.78      -0.28       0.43
      9.09      -0.57       0.50
      9.07      -0.68       0.27
      8.83      -0.83       0.32
      8.92      -0.74       0.42
      9.57      -0.89       0.13
     10.29      -1.03       0.23
      9.91      -0.56       0.34
      8.33      -0.80       0.46
      8.10      -0.97       0.31
      8.51      -1.19      -0.09
      8.87      -1.05      -0.12
      8.79      -1.12       0.03
      8.62      -1.09       0.04
      8.59      -0.84       0.22
      8.60      -0.95       0.38
      8.78      -1.13       0.29
      8.88      -1.01       0.49
      8.95      -1.06       0.68
      9.22      -1.13       0.05
      9.05      -0.94      -0.42
      8.76      -0.80      -0.42
      8.60      -0.87      -0.26
      8.69      -0.61      -0.21
      9.12      -0.05      -0.02
      9.46       0.20      -0.06
      9.08       0.05       0.04
      8.98      -0.02       0.04
      9.26      -0.20      -0.10
      9.41      -0.18      -0.23
      9.19      -0.33      -0.28
      9.27      -0.56      -0.28
      9.65      -0.50      -0.25
      9.75      -0.61      -0.22
      9.74      -0.98      -0.24
      9.78      -0.92      -0.07
      9.91      -0.74      -0.26
      9.89      -0.69      -0.69
      9.99      -0.71      -0.18
     10.02      -0.86       0.32
      9.74      -0.74       0.20
      9.01      -0.37       0.95
      9.06      -0.21       0.45
      8.95      -0.04       0.30
      9.16      -0.33       0.38
      9.20      -0.75       0.25
      8.72      -0.52       0.24
      8.90      -0.47       0.54
      9.24      -0.38       0.71
      9.21      -0.80       0.50
      9.18      -0.61       0.25
      9.32      -0.33      -0.05
      9.09      -0.76       0.20
      8.63      -0.92       0.82
      8.66      -0.33       0.89
      9.06       0.02       0.35
      9.32      -0.18       0.04
      9.34      -0.31      -0.06
      9.36      -0.52       0.18
      9.44      -0.43       0.16
      9.47      -0.73       0.05
      9.09      -0.99       0.26
      9.01      -0.99       0.31
      9.26      -1.07       0.22
      9.60      -1.24       0.50
     10.53      -1.17       0.42
     10.81      -1.37       0.11
      9.89      -0.96      -0.10
      9.47      -1.11      -0.20
      9.23      -0.92      -0.17
      9.04      -0.47      -0.07
      8.82      -0.23      -0.27
      8.92      -0.11      -0.06
      9.25       0.03       0.15
      9.32       0.05       0.15
      9.30      -0.04       0.26
      9.52      -0.37       0.16
      9.90      -0.47      -0.19
     10.03      -0.21      -0.40
      9.96      -0.31      -0.22
      9.98      -0.61      -0.11
     10.00      -0.84      -0.16
      9.96      -0.89      -0.27
     10.20      -0.72      -0.20
     10.20      -0.40      -0.15
     10.19      -0.38      -0.42
     10.52      -0.73      -0.21
     10.38      -0.75      -0.14
      9.33      -0.46       0.35
      9.74      -0.29       0.39
      9.49      -0.23       0.28
      9.02      -0.52       0.33
      9.12      -0.67       0.52
      9.33      -0.63       0.47
      9.16      -0.76       0.35
      9.04      -1.13       0.48
      9.43      -0.75       0.75
      9.84      -0.04       0.64
      9.19      -0.14       0.23
      8.70      -0.67       0.44
      8.86      -0.67       0.81
      9.45      -0.51       0.56
      9.74      -0.29       0.19
     10.05      -0.27       0.18
     10.00      -0.60       0.08
      9.99      -0.51       0.03
     10.01      -0.58       0.31
      9.51      -0.76       0.28
      9.24      -0.87       0.29
      9.62      -1.16       0.19
      9.58      -1.03       0.02
      9.81      -0.95       0.14
      9.90      -1.19       0.16
      9.62      -1.18       0.36
      9.69      -0.92       0.42
      9.87      -0.81       0.08
     10.02      -0.84      -0.08
     10.01      -0.96       0.03
      9.40      -1.02      -0.56
      9.16      -0.97      -0.25
      9.07      -0.62       0.12
      9.03      -0.32       0.16
      9.14      -0.19       0.09
      9.49      -0.33      -0.07
     10.00      -0.44      -0.38
     10.52      -0.62      -0.30
     10.28      -0.64      -0.04
      9.90      -0.38       0.10
      9.96      -0.30       0.11
     10.19      -0.39      -0.11
     10.20      -0.64      -0.09
     10.27      -0.71      -0.11
     10.56      -0.65      -0.11
     10.30      -0.51      -0.10
     10.06      -0.81      -0.05
      9.64      -0.33       0.20
      9.44      -0.52       0.27
      9.23      -0.47       0.38
      9.30      -0.39       0.53
      9.35      -0.21       0.71
      9.41      -0.12       0.62
      9.37      -0.08       0.36
      9.30      -0.03       0.44
      9.20       0.09       0.67
      9.02       0.15       0.63
      9.04       0.07       0.35
      9.20      -0.01       0.24
      9.25       0.13       0.20
      9.54       0.27       0.13
      9.70       0.52       0.16
      9.91       0.42       0.30
     10.08       0.27       0.03
      9.96      -0.01      -0.18
      9.96      -0.42       0.12
      9.96      -0.62       0.37
      9.89      -0.48       0.36
      9.79      -0.66       0.17
      9.64      -0.85       0.27
      9.53      -0.81       0.35
      9.58      -0.94       0.07
      9.72      -1.10       0.04
      9.84      -1.31      -0.00
      9.83      -1.50      -0.25
      9.95      -1.33      -0.23
     10.00      -1.03      -0.04
      9.86      -0.89       0.04
      9.73      -0.77      -0.05
      9.66      -0.75      -0.02
      9.62      -0.79       0.12
      9.68      -0.78       0.14
      9.94      -0.78       0.01
     10.05      -0.83      -0.24
      9.96      -0.65      -0.22
     10.13      -0.50      -0.25
     10.36      -0.51      -0.35
     10.34      -0.54      -0.19
     10.40      -0.75      -0.13
     10.15      -0.97      -0.27
      9.92      -0.94      -0.28
     10.05      -0.63      -0.17
     10.06      -0.82       0.07
      9.90      -1.09       0.15
