# vtk DataFile Version 3.0
Low resolution, disturbed wind of YZ Slice at time = 3 seconds.
ASCII
DATASET STRUCTURED_POINTS
DIMENSIONS     1    26    12
ORIGIN    1756.00     635.00      15.00
SPACING      30.00      30.00      30.00
POINT_DATA             312
VECTORS DisYZ float
      6.19       1.62      -0.07
      5.32       1.15       0.28
      6.53       0.71      -0.12
      3.54       0.22       0.54
      4.29       0.04       0.22
      5.90       0.30      -0.12
      5.47       0.50       0.03
      6.08       0.31       0.04
      5.52       0.56       0.01
      5.24       1.19       0.22
      5.26       0.30       0.03
      5.15       0.59      -0.18
      5.17       0.09       0.33
      6.32      -0.17      -0.08
      5.86      -0.62      -0.27
      3.68      -0.29       0.82
      4.89       0.67       0.14
      4.43      -0.30       0.48
      6.97       0.60      -0.19
      5.26       0.19       0.10
      5.49       0.01       0.17
      7.06       0.28      -0.44
      6.60       0.55      -0.41
      7.00      -0.52      -0.22
      8.50      -0.60      -0.03
      6.68       1.18       0.30
      6.61       0.08       0.19
      6.63       0.23       0.07
      7.14       0.78      -0.30
      5.53       0.93       0.27
      7.21       0.92      -0.11
      6.68       0.29       0.19
      6.23       0.61       0.35
      7.09       0.64       0.03
      7.07       0.47       0.20
      5.51      -0.01       0.17
      5.53      -0.13       0.30
      5.46       0.41       0.15
      5.91      -0.08      -0.02
      6.44       0.71      -0.26
      6.61       0.30       0.03
      6.22      -0.42       0.92
      6.95       0.11      -0.10
      5.77       0.61       0.20
      6.93       0.77      -0.11
      5.84       0.07       0.06
      7.00      -0.01      -0.28
      7.67       0.03      -0.46
      6.54      -0.09       0.11
      7.94       0.49      -0.77
      8.77       0.46      -0.21
      7.66       0.04      -0.13
      7.08       0.64       0.67
      7.55      -0.06       0.43
      8.53      -0.12      -0.65
      8.24      -0.24      -0.30
      7.23      -0.15      -0.03
      6.75       0.29       0.15
      6.96       0.54       0.06
      7.29       0.40      -0.08
      7.28       0.09       0.01
      7.47      -0.15      -0.17
      7.27       0.14      -0.33
      6.32       0.06       0.01
      7.29       0.52      -0.27
      7.25      -0.07      -0.65
      6.94       0.14       0.32
      5.62       0.56       0.62
      7.32       0.53      -0.22
      7.27       0.38       0.07
      7.41      -0.05       0.10
      6.60      -0.23       0.47
      7.33       0.33       0.21
      8.22      -0.16      -0.19
      8.48       0.32      -0.22
      8.18      -0.15      -0.03
      8.33      -0.65      -0.12
      8.17      -0.44      -0.23
      7.72      -0.05       0.30
      7.89       0.14       0.15
      8.35       0.03      -0.43
      8.37      -0.09      -0.20
      6.83      -0.38       0.39
      7.18       0.26       0.12
      7.65       0.20       0.28
      7.27       0.29       0.04
      8.07       0.45       0.02
      7.81       0.31      -0.29
      8.20       0.24       0.07
      8.15       0.11      -0.17
      7.95       0.37      -0.02
      7.97       0.31      -0.14
      7.58      -0.04       0.17
      7.95       0.03       0.08
      8.25       0.36      -0.28
      7.59       0.22       0.41
      7.91      -0.14       0.30
      8.33      -0.31       0.17
      7.95       0.11       0.13
      7.97       0.36       0.24
      8.93       0.10      -0.20
      8.36      -0.07      -0.03
      8.25       0.12       0.06
      8.61       0.07      -0.43
      7.15      -0.40       0.64
      7.40       0.06       0.29
      8.44      -0.13      -0.57
      8.44      -0.32      -0.12
      8.12      -0.21       0.25
      7.71       0.01       0.24
      7.50       0.11       0.30
      8.14       0.05       0.55
      8.59      -0.06       0.03
      9.07      -0.00      -0.45
      8.26       0.28       0.27
      8.56      -0.00      -0.10
      8.57      -0.28      -0.16
      8.81      -0.16      -0.09
      8.05       0.03       0.37
      8.64      -0.24       0.32
      8.54       0.34       0.22
      7.44       0.14       0.61
      8.09      -0.03       0.30
      8.50      -0.20       0.13
      8.77      -0.08      -0.03
      8.62      -0.07      -0.11
      9.01       0.25      -0.20
      9.08       0.33      -0.39
      9.20       0.59      -0.24
      9.33       0.16      -0.27
      8.11      -0.19       0.08
      8.71      -0.29      -0.30
      8.25      -0.34       0.27
      8.82      -0.39      -0.68
      7.92      -0.37       0.36
      8.02      -0.12      -0.22
      8.13      -0.11       0.14
      7.52       0.77       0.50
      7.85       0.37       0.25
      9.12      -0.20       0.04
      8.91      -0.04       0.08
      9.16      -0.16       0.16
      9.24      -0.30       0.04
      8.74      -0.35      -0.01
      9.30      -0.37      -0.09
      9.39      -0.13       0.31
      8.98       0.22       0.61
      8.45       0.24       0.45
      8.21       0.43       0.33
      8.33       0.55       0.29
      8.79       0.11      -0.43
      8.79      -0.07       0.01
      9.20       0.19      -0.13
      9.10       0.51      -0.30
      9.13       0.25      -0.13
      9.02       0.05      -0.07
      8.07      -0.52       0.14
      8.44      -0.57      -0.01
      8.57      -0.78      -0.29
      9.30      -0.79      -0.56
      8.69      -0.67      -0.28
      9.08      -0.13      -0.29
      8.82      -0.06       0.02
      8.98      -0.46       0.22
      8.88      -0.33       0.19
      8.81      -0.23       0.23
      9.32      -0.25       0.07
      9.66      -0.28       0.10
      8.99      -0.70       0.43
      9.60      -0.82      -0.28
      9.82      -0.63       0.06
      9.82      -0.24       0.13
      9.75      -0.07       0.42
      8.64       0.06       0.76
      8.51       0.20       0.34
      8.94      -0.02       0.27
      9.27      -0.21      -0.09
      9.28      -0.02      -0.19
      9.04      -0.42      -0.11
      9.35      -0.54      -0.46
      9.40      -0.59      -0.18
      9.74      -0.57      -0.10
      8.34      -0.53       0.14
      8.54      -0.67      -0.11
      9.13      -0.48      -0.40
      9.44      -0.73      -0.48
      9.15      -0.61      -0.06
      9.18      -0.39      -0.53
      9.35      -0.23      -0.03
      8.79      -0.34       0.18
      8.65      -0.82       0.19
      9.14      -0.43       0.40
      9.46      -0.38       0.06
      8.95      -0.89       0.28
      9.05      -0.89       0.53
      9.71      -0.49      -0.54
     10.38      -0.79      -0.42
      9.73      -0.45      -0.19
      8.84      -0.33       0.43
      8.57       0.01       0.63
      8.81      -0.55       0.35
      9.45      -0.50       0.06
      8.67      -0.65      -0.08
      9.18      -1.26       0.03
      9.76      -1.00       0.15
      9.80      -1.01      -0.39
      9.51      -0.94       0.09
      9.59      -0.81      -0.13
      8.62      -0.12       0.04
      9.21      -0.55      -0.05
      9.46      -0.67      -0.34
      9.19      -0.60      -0.24
      9.39      -0.55      -0.29
      9.41      -0.35      -0.39
      9.10      -0.56      -0.18
      8.99      -0.85       0.24
      9.13      -0.48       0.43
      8.94      -0.70       0.44
      9.28      -0.64       0.17
      9.48      -1.14       0.53
      9.48      -0.81      -0.29
      9.73      -1.03      -0.19
      9.50      -1.21      -0.39
      9.18      -0.94      -0.13
      8.91      -0.84       0.23
      8.78      -0.75       0.58
      9.42      -0.96       0.40
      8.66      -0.86       0.16
      8.66      -0.68       0.33
      9.32      -0.78       0.06
      9.77      -0.88      -0.04
      9.41      -1.44      -0.04
      9.08      -1.59      -0.50
      9.13      -1.70      -0.31
      8.76      -0.54       0.01
      8.76      -0.10      -0.08
      9.15      -0.22      -0.18
      9.55      -0.44      -0.19
      9.13      -0.50      -0.23
      9.06      -0.67      -0.04
      9.07      -1.10      -0.43
      8.63      -0.67       0.09
      9.18      -1.02       0.70
      9.54      -0.91       0.32
      9.61      -1.01       0.39
      9.60      -0.72       0.11
     10.07      -0.38      -0.20
     10.28      -0.63      -0.17
      9.94      -0.77       0.11
      9.48      -1.46      -0.34
      9.21      -1.16       0.09
      9.14      -0.84       0.97
      8.98      -0.56       0.40
      9.53      -1.00       0.20
      9.59      -0.71      -0.16
      9.36      -0.82       0.40
     10.43      -0.99      -0.30
      9.69      -0.90       0.31
      9.41      -1.09      -0.25
     10.01      -1.18      -0.55
      9.28      -0.25       0.10
      9.60      -0.15       0.00
      9.41      -0.28      -0.06
      9.57      -0.51      -0.22
      9.38      -0.69      -0.39
      8.97      -0.94       0.17
      9.61      -0.95      -0.35
      9.52      -0.94      -0.09
      9.91      -1.06       0.09
     10.24      -0.56      -0.25
      9.83      -0.52       0.25
     10.17      -0.47      -0.09
     10.38      -0.62      -0.23
     10.39      -0.78      -0.11
     10.36      -0.58      -0.04
     10.11      -0.76       0.11
      9.10      -1.28       0.31
      9.23      -1.04       0.34
      9.17      -0.97       0.45
      9.43      -0.51       0.08
      9.66      -0.92      -0.25
      9.72      -0.75       0.21
     10.10      -0.95      -0.33
      9.84      -1.36       0.13
     10.14      -1.17      -0.01
     10.19      -1.41       0.29
      9.36      -0.33       0.25
      9.54      -0.44       0.15
      9.54      -0.56       0.03
      9.59      -1.03      -0.15
      9.79      -1.00      -0.44
      9.54      -0.63      -0.11
      9.28      -0.23       0.09
      9.45      -0.20      -0.02
      9.76      -0.57       0.18
     10.34      -0.64      -0.55
      9.72      -0.65       0.23
     10.07      -0.82       0.06
     10.27      -1.00      -0.32
      9.97      -0.90      -0.02
     10.28      -0.82       0.02
     10.02      -0.71       0.22
      9.41      -0.79       0.16
      9.44      -0.44       0.22
      9.35      -0.55       0.33
      9.34      -0.46      -0.02
      9.35      -0.35       0.16
      9.86      -0.60       0.15
     10.07      -1.19       0.14
     10.12      -1.09      -0.06
      9.93      -1.28      -0.09
      9.70      -1.18       0.10
