# vtk DataFile Version 3.0
Low resolution, disturbed wind of YZ Slice at time = 54 seconds.
ASCII
DATASET STRUCTURED_POINTS
DIMENSIONS     1    26    12
ORIGIN    1882.00     635.00      15.00
SPACING      30.00      30.00      30.00
POINT_DATA             312
VECTORS DisYZ float
      5.59       0.88       0.53
      5.05      -0.98       0.55
      6.92      -0.37      -0.12
      6.19      -0.32       0.19
      5.32       0.50       0.12
      4.99       0.91       0.18
      5.63       0.14      -0.33
      5.26       0.22      -0.11
      6.27       0.04       0.03
      4.31       0.99       0.66
      5.12      -0.56      -0.72
      5.79       0.64      -0.13
      5.22      -0.12      -0.20
      5.59      -0.75      -0.97
      4.92       0.73       0.04
      4.85       1.10       0.30
      4.90       0.19       0.18
      4.78      -0.55       0.17
      6.25       0.43       0.26
      6.76       0.73      -0.15
      5.33       0.10       0.44
      7.10       0.21      -0.62
      6.80       0.67       0.01
      6.03       0.40       0.00
      6.13       1.15      -0.14
      5.44       1.02       0.01
      6.77       0.13       0.42
      5.85       0.58       0.25
      7.46       0.39      -0.28
      7.10       0.40      -0.78
      6.97      -0.51      -0.07
      6.22      -0.13       0.08
      6.28       0.38       0.09
      6.34       0.88       0.10
      7.52       0.06      -0.53
      5.63       0.71       0.49
      6.21       1.20      -0.16
      6.76       0.64      -0.13
      6.57       0.69      -0.08
      6.01      -0.45      -0.47
      6.76      -0.11      -0.42
      6.73       0.12       0.30
      6.41       0.48       0.71
      6.45       0.06       0.20
      7.43      -0.14      -0.18
      8.12       0.52      -0.42
      6.84       0.47       0.49
      7.49       0.76      -0.62
      7.08       0.22       0.20
      6.59      -0.16       0.02
      7.75      -0.74      -0.08
      8.06      -0.52      -0.52
      7.13       0.06       0.47
      7.43       0.58       0.20
      8.61       0.70       0.02
      7.37       0.39       0.36
      7.81      -0.23       0.53
      7.97       0.04      -0.06
      7.22       0.34       0.36
      7.57       0.99      -0.12
      7.65       0.23       0.16
      7.68       0.02      -0.66
      6.29      -0.43      -0.15
      6.79      -0.41       0.81
      6.90       0.26      -0.01
      7.31       0.62      -0.37
      7.59       0.10      -0.01
      7.66      -0.25      -0.03
      7.23      -0.83       0.70
      6.66       0.04       0.30
      8.49       0.01      -0.61
      8.00       0.32      -0.41
      7.72       0.65       0.46
      7.51       0.24      -0.23
      7.70       0.03      -0.03
      7.16       0.06       0.58
      7.58       0.20       0.07
      7.98      -0.28       0.23
      7.54       0.40       0.10
      8.28       0.70      -0.18
      7.36       0.50       0.14
      7.17       0.50       0.27
      7.60       0.57       0.65
      7.74       0.24       0.16
      8.11       0.63      -0.09
      8.21       0.56       0.11
      7.88       0.67       0.04
      7.79      -0.13      -0.17
      7.20      -0.74       0.32
      7.74      -0.06       0.12
      7.38       0.29      -0.14
      8.27      -0.42      -0.29
      8.46      -0.78       0.03
      8.11      -0.86       0.61
      7.84      -0.80       0.31
      8.02      -0.52       0.46
      8.35      -0.24      -0.16
      8.05      -1.08      -0.50
      7.96      -0.93       0.52
      8.92      -0.24      -0.23
      7.83      -0.47       0.26
      8.19      -0.49       0.30
      8.07      -0.38       0.42
      8.76      -0.34      -0.15
      7.96       0.04       0.40
      8.19      -1.00      -0.01
      8.19      -0.73      -0.27
      8.28      -0.44      -0.29
      8.06      -0.14       0.07
      8.27       0.32       0.24
      8.93       0.08      -0.13
      8.50      -0.28       0.24
      8.38      -0.13      -0.02
      8.43       0.32       0.20
      8.32      -0.21      -0.15
      8.15       0.17       0.22
      7.73      -0.25       0.45
      8.36      -0.81       0.65
      8.27      -1.14      -0.09
      8.18      -1.58       0.04
      8.30      -0.15       0.35
      8.78       0.14       0.21
      8.41      -0.14       0.11
      8.42      -0.29      -0.11
      9.28      -1.20      -0.34
      8.88      -0.80      -0.29
      8.33      -0.56       0.34
      8.41      -0.28       0.40
      8.64      -0.36       0.12
      8.87      -0.25       0.05
      8.38      -0.45       0.10
      8.22      -0.69      -0.12
      8.30      -0.31      -0.10
      8.79      -0.48      -0.15
      8.46      -0.40       0.18
      9.02      -0.29      -0.05
      9.28      -0.29      -0.12
      9.25      -0.36       0.46
      8.41      -0.20       0.17
      8.12      -0.78       0.16
      8.25      -0.51       0.13
      8.08      -0.19       0.44
      8.07       0.31       0.29
      8.41       0.29       0.36
      8.07       0.39      -0.07
      8.49       0.12      -0.98
      8.92      -0.06      -0.06
      8.34      -0.05       0.84
      8.64      -0.38      -0.17
      8.48      -0.48       0.19
      9.19      -0.66      -0.13
      9.55      -0.47      -0.19
      8.67      -0.53      -0.19
      8.25      -0.02       0.50
      8.58      -0.06       0.24
      8.70       0.08       0.13
      8.62      -0.51       0.02
      8.49      -0.69      -0.08
      8.61      -0.71       0.05
      9.30      -0.31      -0.29
      8.99      -0.22      -0.20
      8.67      -0.28      -0.42
      8.84      -0.44       0.60
      9.06      -0.23       0.73
      8.67      -0.06       0.32
      9.03      -0.39       0.73
      9.82      -0.11       0.05
      8.90       0.12       0.27
      8.97       0.36       0.23
      9.25       0.34       0.30
      8.69       0.30      -0.20
      8.99      -0.45      -0.24
      8.61      -0.51       0.02
      8.57      -0.28       0.54
      8.86      -0.42       0.14
      9.06      -0.56       0.08
      9.08      -0.77      -0.30
      8.69      -0.74      -0.16
      9.55      -0.64      -0.47
      8.99      -0.42       0.06
      8.84      -0.16       0.39
      9.35       0.10      -0.01
      8.80      -0.49       0.05
      8.98      -0.41       0.03
      9.51      -0.72       0.08
      9.63      -0.50      -0.00
      9.56      -0.41      -0.31
      8.77      -0.62      -0.19
      8.23      -0.72       0.34
      8.50      -0.62       0.27
      8.44      -0.37       0.15
      8.82       0.16       0.22
      9.06       0.13       0.07
      9.29      -0.10       0.04
      9.78      -0.09      -0.14
      8.54       0.23       0.32
      8.77      -0.03       0.05
      9.08      -0.44      -0.47
      9.30      -0.40      -0.03
      8.91      -0.53       0.59
      8.81      -0.63      -0.01
      9.45      -0.67       0.18
      9.19      -1.09      -0.03
     10.27      -0.66      -0.85
     10.03      -0.56      -0.70
      9.88      -0.83       0.24
      9.12      -0.35       0.27
      9.10      -0.35      -0.01
      8.98      -0.85       0.09
      9.31      -0.94       0.33
      9.47      -0.80      -0.19
     10.08      -0.51      -0.26
      9.53      -0.35      -0.07
      9.22      -0.78      -0.36
      8.47      -1.20      -0.21
      8.13      -1.09       0.24
      8.98      -0.82      -0.06
      8.69      -0.59       0.45
      8.44      -0.07       0.54
      8.78      -0.08       0.17
      9.02       0.05      -0.04
      8.95       0.16       0.04
      8.87      -0.01       0.45
      9.79      -0.35      -0.54
      9.32      -0.25      -0.00
      8.90      -0.26       0.25
      9.44      -0.25      -0.22
      9.46      -0.66       0.24
      9.54      -0.81       0.10
     10.25      -1.21      -1.09
     10.13      -2.04      -0.38
     10.44      -1.58      -0.11
      9.67      -0.85       0.00
      9.60      -0.57       0.04
      8.63      -0.20       0.16
      9.29      -0.64       0.34
      9.60      -0.18      -0.29
      9.55      -0.17      -0.16
      9.54      -0.60      -0.31
      9.44      -0.63      -0.51
      9.78      -0.93      -0.09
      9.68      -0.91      -0.06
      9.64      -0.65      -0.34
      9.06      -0.64      -0.27
      9.48      -0.39       0.18
      9.10       0.00       0.23
      9.14      -0.06       0.03
      8.62       0.17       0.35
      9.21      -0.19       0.29
      9.77      -0.55      -0.08
      9.88      -0.93      -0.40
      9.57      -0.73       0.13
      9.36      -0.48       0.23
      9.42      -0.42       0.44
      9.74      -0.46      -0.14
     10.31      -0.83      -0.76
     10.36      -1.43      -0.33
     10.05      -1.30      -0.22
      9.70      -1.06       0.15
      9.57      -1.15      -0.13
      9.39      -0.51       0.31
      9.16      -0.16       0.33
      9.54       0.18      -0.19
      9.71       0.02      -0.19
      9.46      -0.21      -0.27
      9.64      -0.65      -0.06
     10.32      -1.00      -0.24
      9.79      -1.14      -0.01
      9.67      -0.79      -0.18
      9.81      -0.86      -0.16
      9.01      -0.80      -0.22
      9.49      -0.75      -0.18
      9.00      -0.69      -0.16
      9.38      -0.75       0.08
     10.26      -0.61      -0.03
     10.15      -0.66      -0.40
      9.44      -0.94      -0.39
      9.60      -0.94      -0.12
      9.52      -0.81      -0.02
      9.64      -0.54       0.18
      9.80      -0.76      -0.13
     10.25      -0.94      -0.53
     10.35      -1.42      -0.11
     10.09      -1.76      -0.29
     10.17      -1.65      -0.18
      9.80      -1.08      -0.23
      9.40       0.10       0.18
      9.47       0.30      -0.08
      9.93       0.19       0.02
      9.61      -0.02      -0.09
      9.81      -1.00       0.13
      9.44      -0.61       0.27
      9.91      -0.78       0.00
      9.55      -0.63       0.42
      9.40      -0.81       0.11
      9.90      -0.76      -0.15
      9.94      -0.95      -0.09
      9.78      -0.86      -0.03
      9.82      -0.90      -0.04
     10.01      -1.10       0.08
      9.96      -1.21      -0.06
      9.73      -1.02      -0.14
     10.02      -1.10      -0.23
      9.97      -1.04      -0.05
      9.93      -0.80       0.11
      9.66      -0.73      -0.03
      9.98      -0.73      -0.06
     10.04      -0.89      -0.10
     10.33      -1.08      -0.12
      9.85      -0.95      -0.22
     10.09      -1.12      -0.12
     10.20      -1.35      -0.31
