# vtk DataFile Version 3.0
Low resolution, disturbed wind of YZ Slice at time = 51 seconds.
ASCII
DATASET STRUCTURED_POINTS
DIMENSIONS     1    26    12
ORIGIN    1882.00     635.00      15.00
SPACING      30.00      30.00      30.00
POINT_DATA             312
VECTORS DisYZ float
      6.09       0.76       0.63
      4.78      -0.70       0.50
      5.63      -0.28       0.27
      6.65      -0.04       0.03
      5.03       0.64       0.14
      5.15       1.12       0.16
      5.64       0.61      -0.12
      5.58      -0.69       0.57
      6.56      -0.10      -0.64
      4.56       1.11       0.27
      5.22      -0.18       0.01
      5.53       0.46       0.10
      5.51       0.58      -0.43
      5.73       0.65       0.22
      5.37       1.19      -0.10
      4.87       1.05      -0.20
      4.49       0.34       0.12
      5.84       0.07      -0.34
      5.15      -0.67       0.24
      6.56       0.67       0.05
      5.91       0.07       0.13
      7.82       0.34      -0.59
      6.89       0.68       0.24
      5.70      -0.15      -0.20
      6.52       0.82      -0.43
      5.70       0.97      -0.01
      6.69       0.40       0.33
      6.04       0.34       0.13
      7.40       0.22      -0.40
      6.79       0.10      -0.54
      7.38      -0.36      -0.58
      6.13      -0.01       0.23
      5.93       0.32       0.20
      6.48       0.83      -0.42
      6.99       0.01      -0.27
      5.97       0.68       0.35
      6.22       0.60      -0.09
      6.70       0.26      -0.36
      6.59       0.36       0.26
      6.28      -0.27      -0.15
      6.67      -0.06      -0.51
      7.18       0.29      -0.44
      6.82       0.66       0.33
      5.89       0.27       0.89
      7.16       0.17      -0.20
      7.88       0.39       0.03
      6.54       0.71       0.57
      7.73       0.86      -0.09
      6.89      -0.12       0.37
      6.68       0.19      -0.31
      7.74      -0.91      -0.28
      7.74      -0.39      -0.25
      6.76       0.13       0.46
      7.63       0.48      -0.11
      8.04       0.49      -0.03
      7.60       0.49       0.32
      7.80      -0.14       0.47
      7.63      -0.22      -0.16
      7.02       0.35       0.24
      7.99       0.34      -0.41
      7.25      -0.20      -0.11
      7.51       0.02      -0.47
      6.04      -0.52      -0.32
      6.22      -0.36       0.27
      6.75      -0.20      -0.38
      7.66      -0.23      -0.87
      7.43      -0.13      -0.10
      7.84      -0.33       0.18
      7.33      -0.55       0.45
      6.66      -0.19       0.81
      8.21       0.01       0.04
      8.36       0.71      -0.30
      7.77       0.82       0.63
      7.76       0.43      -0.22
      7.79       0.20       0.12
      7.22       0.02       0.61
      7.65      -0.64       0.22
      8.09      -0.55       0.20
      7.56       0.32       0.13
      8.01       0.47       0.08
      7.58       0.48       0.37
      7.42       0.65       0.23
      7.68       0.42       0.44
      7.92       0.26       0.28
      8.23       0.83      -0.13
      8.00       0.44       0.13
      8.05       0.36      -0.01
      7.97       0.24      -0.57
      7.39      -0.25       0.09
      7.23      -0.51       0.18
      7.30      -0.25      -0.17
      8.02      -0.93      -0.15
      8.78      -0.60      -0.27
      8.63      -0.77       0.69
      7.03      -0.83       0.92
      7.70      -0.50       0.49
      8.46      -0.00       0.12
      7.96      -0.47      -0.47
      7.98      -0.46       0.27
      9.05      -0.17      -0.05
      7.84      -0.28       0.30
      8.14      -0.35       0.28
      8.01      -0.36       0.40
      8.72      -0.45       0.06
      7.82       0.04       0.34
      8.09      -0.36       0.18
      8.30      -0.50      -0.39
      8.30      -0.44      -0.29
      8.08      -0.27      -0.05
      8.65      -0.11      -0.09
      9.41       0.20      -0.43
      8.42       0.33       0.33
      8.04       0.45       0.06
      8.38       0.30       0.12
      8.36      -0.22       0.08
      7.70      -0.15       0.18
      7.94      -0.55       0.35
      8.24      -0.93       0.19
      8.75      -1.28      -0.46
      8.71      -1.42       0.16
      8.02      -0.55       0.64
      8.05       0.05       0.35
      8.50      -0.60       0.28
      8.66      -0.56      -0.43
      9.30      -1.09       0.00
      9.03      -0.63      -0.37
      8.28      -0.46       0.44
      8.43      -0.85       0.34
      8.72      -0.61       0.17
      8.69      -0.25       0.08
      8.67      -0.43       0.07
      8.27      -0.62      -0.07
      8.28      -0.07       0.23
      8.69      -0.46      -0.40
      8.64      -0.54      -0.23
      8.97      -0.08      -0.28
      8.88      -0.22       0.03
      8.88      -0.30       0.38
      8.34      -0.07       0.17
      8.59      -0.48       0.17
      8.19      -0.71      -0.07
      7.93      -0.24       0.81
      7.74       0.10       0.36
      8.34       0.36       0.02
      8.49      -0.06      -0.35
      9.08      -0.40      -0.59
      8.90      -0.56       0.58
      8.51      -0.28       0.82
      8.80      -0.46      -0.22
      8.80      -0.59      -0.11
      9.00      -0.87      -0.12
      9.32      -0.37      -0.17
      8.75      -0.35      -0.04
      8.37       0.41       0.70
      8.51       0.12       0.28
      8.71      -0.02       0.04
      8.80      -0.70       0.01
      8.43      -0.91       0.01
      8.08      -0.84       0.10
      8.93      -0.54      -0.41
      8.83      -0.31      -0.14
      8.96      -0.15      -0.39
      8.67      -0.26       0.04
      8.65      -0.24       0.37
      8.55       0.19       0.29
      8.88      -0.20       0.70
      9.62      -0.18       0.35
      8.75      -0.20       0.44
      8.65       0.58       0.63
      9.52       0.32       0.11
      9.16      -0.19      -0.18
      9.09      -0.71      -0.64
      8.66      -0.59       0.37
      8.70      -0.08       0.40
      9.00      -0.52      -0.00
      9.12      -0.57      -0.03
      9.33      -0.60      -0.44
      8.82      -0.65      -0.08
      9.41      -0.58      -0.57
      8.91      -0.36       0.15
      8.58       0.05       0.44
      9.33       0.18       0.11
      8.45      -0.39       0.21
      9.05      -0.10      -0.15
      9.24      -0.38       0.03
      9.49      -0.41      -0.21
      9.23      -0.38      -0.27
      8.93      -0.59      -0.38
      8.22      -0.63       0.08
      8.49      -0.48       0.16
      8.67      -0.16       0.44
      8.85       0.01       0.18
      9.28      -0.14       0.53
      9.34       0.07       0.14
      9.29       0.16       0.32
      8.63       0.33       0.39
      9.05       0.14       0.03
      9.34      -0.29      -0.35
      9.40      -0.58      -0.26
      8.95      -0.71       0.48
      9.16      -0.67      -0.32
      9.50      -0.80      -0.07
      9.42      -1.10      -0.18
     10.46      -0.82      -0.71
     10.09      -0.46      -0.66
      9.89      -0.24       0.19
      8.89      -0.04       0.45
      9.15      -0.05       0.06
      9.11      -0.60       0.20
      9.28      -0.93       0.18
      9.27      -0.84       0.07
     10.11      -0.70      -0.56
      9.66      -0.52      -0.07
      9.33      -1.04      -0.42
      8.86      -1.14      -0.52
      8.18      -0.83      -0.03
      8.52      -0.68      -0.19
      8.67      -0.23       0.05
      8.60       0.16       0.42
      8.69      -0.12       0.29
      8.91       0.02       0.01
      8.98       0.02       0.05
      9.49      -0.36       0.22
      9.64      -0.42      -0.44
      9.35      -0.22      -0.16
      9.41      -0.31       0.03
      9.16      -0.60      -0.21
      9.72      -0.75      -0.08
      9.66      -1.14       0.30
     10.40      -1.20      -1.08
     10.32      -1.29      -0.62
     10.08      -1.04      -0.31
      9.53      -0.55       0.21
      9.47      -0.24       0.20
      8.47      -0.34       0.06
      9.59      -0.93       0.39
      9.62      -0.88      -0.19
      9.72      -0.57      -0.09
      9.44      -0.75      -0.39
      9.64      -0.82      -0.62
     10.04      -0.97      -0.30
      9.57      -0.98      -0.09
      9.32      -0.57      -0.17
      9.28      -0.45      -0.26
      9.57      -0.28      -0.02
      9.18      -0.01       0.24
      9.25       0.07       0.14
      8.91       0.12       0.07
      9.72      -0.35      -0.18
      9.66      -0.56      -0.04
     10.26      -0.57      -0.27
      9.61      -0.69       0.01
      9.34      -0.49       0.02
      9.48      -0.58       0.54
      9.75      -0.84      -0.10
     10.37      -1.01      -0.92
     10.24      -1.31      -0.52
      9.65      -0.95       0.04
      9.64      -0.74       0.18
      9.89      -0.96       0.16
      9.38      -0.95       0.25
      9.12      -0.60       0.28
      9.42      -0.25      -0.44
      9.70      -0.25       0.01
      9.71      -0.31      -0.33
      9.41      -0.89      -0.21
      9.67      -1.12      -0.22
      9.80      -1.11      -0.20
      9.24      -0.76      -0.22
      9.74      -0.61      -0.03
      8.96      -0.62      -0.09
      9.20      -0.46      -0.04
      8.81      -0.38      -0.07
      9.73      -0.71      -0.03
     10.06      -0.69      -0.02
     10.02      -0.54      -0.24
      9.53      -0.68      -0.19
      9.42      -0.63       0.03
      9.21      -0.60       0.04
      9.67      -0.46       0.10
      9.73      -0.79      -0.15
     10.36      -0.85      -0.39
     10.19      -1.14       0.05
     10.37      -1.27      -0.38
      9.78      -1.28      -0.23
      9.47      -0.58       0.10
      9.43      -0.31       0.15
      9.39       0.12      -0.04
      9.75       0.37      -0.26
      9.67       0.06      -0.12
      9.80      -0.90       0.12
      9.60      -0.71       0.11
      9.95      -0.79       0.00
      9.45      -0.67       0.08
      9.62      -0.65       0.06
      9.73      -0.72       0.06
      9.78      -0.92       0.07
      9.56      -0.86       0.08
      9.68      -0.65       0.14
     10.17      -0.87       0.09
      9.72      -1.23      -0.16
      9.88      -1.07      -0.15
     10.10      -1.13      -0.35
      9.85      -0.93       0.28
      9.86      -0.68       0.21
      9.76      -0.68       0.23
     10.03      -0.53      -0.05
     10.08      -1.04      -0.14
     10.63      -1.19      -0.26
      9.98      -1.28      -0.02
     10.01      -1.00      -0.17
     10.16      -1.21       0.07
