# vtk DataFile Version 3.0
Low resolution, disturbed wind of XY Slice at time = 51 seconds.
ASCII
DATASET STRUCTURED_POINTS
DIMENSIONS    47    26     1
ORIGIN     635.00     635.00      85.00
SPACING      30.00      30.00      30.00
POINT_DATA            1222
VECTORS DisXY float
      8.24       0.60      -0.75
      7.74      -0.20      -0.18
      8.09      -0.01       0.03
      8.45       0.28       0.14
      8.74       0.14       0.78
      8.33      -0.30       0.53
      8.25      -0.13      -0.03
      8.33      -0.70      -0.05
      8.58      -0.44       0.26
      9.01       0.15       0.05
      8.75       0.61       0.07
      9.00       0.47      -0.00
      8.25       0.14       0.75
      8.42       0.71       0.69
      8.97       0.38      -0.21
      8.46       0.16       0.29
      7.98       0.30       0.50
      7.89       0.47       0.90
      8.31       0.67       0.35
      8.33       0.33       0.64
      8.59       0.13      -0.01
      8.54      -0.01       0.24
      8.79      -0.26      -0.48
      8.69       0.40       0.10
      8.43       0.66       0.13
      9.28       0.22       0.28
      8.57      -0.28      -0.17
      9.24       0.35       0.08
      8.34       0.66       0.65
      9.31       1.06      -0.29
      8.09       0.81      -0.02
      7.71       0.56       0.61
      8.05       0.77       0.37
      8.54       0.58      -0.29
      8.50       0.05      -0.52
      8.45       0.52       0.25
      8.31      -0.49      -0.19
      8.59       0.15      -0.24
      7.98       0.44       0.82
      7.71      -0.04      -0.13
      7.75      -0.24       0.34
      7.12       0.34       0.25
      6.96       0.08       0.43
      6.89      -0.57       0.48
      6.82       0.09       0.24
      7.05      -0.28      -0.28
      6.89      -0.25       0.20
      7.59       0.34      -0.29
      8.26      -0.09      -0.22
      7.91       0.07       0.11
      7.40      -0.35       0.29
      7.61      -0.67       0.07
      7.53      -0.33       0.27
      7.44      -0.29      -0.03
      7.81      -0.83      -0.17
      7.82      -1.07      -0.37
      8.46      -0.00      -0.47
      8.02       0.68       0.34
      7.43       0.43       0.87
      7.48       0.13       0.89
      7.32       0.14       0.19
      7.50       0.50       0.61
      7.90       0.49       0.41
      8.20       0.59       0.58
      7.91       0.44       0.24
      7.97       0.55       0.02
      7.57       0.03      -0.11
      8.21       0.23      -0.10
      7.78      -0.35      -0.32
      7.68      -0.12       0.44
      7.44       0.53       0.55
      7.75       0.38      -0.01
      8.51       0.01      -0.10
      8.79       0.16      -0.12
      8.54      -0.02       0.08
      8.60       0.38       0.10
      8.78       1.15      -0.07
      8.58       1.25      -0.06
      8.80       0.58       0.38
      8.56       0.59      -0.42
      8.14       0.44       0.35
      8.38       0.20      -0.14
      8.31       0.36       0.73
      8.06      -0.75      -0.33
      8.37       0.12      -0.04
      7.84       1.25       0.38
      8.77      -0.17       0.13
      8.32       0.57       0.19
      7.44       0.64       0.01
      8.00       0.35      -0.09
      7.69      -0.44       0.12
      7.68       0.07      -0.15
      7.27      -0.52      -0.00
      7.48      -0.39      -0.16
      7.70       0.32       0.07
      7.29      -0.17       0.03
      7.43      -0.17       0.47
      7.90      -0.57      -0.33
      7.90      -0.98      -0.36
      7.91      -0.52      -0.25
      8.17      -0.11      -0.53
      7.77      -0.82      -0.18
      7.94      -0.68       0.37
      7.59       0.25       0.11
      7.92       1.16      -0.19
      8.11       0.48       0.67
      7.57      -0.01       0.36
      7.29       0.16      -0.06
      7.34       0.37      -0.02
      7.50       0.58       0.26
      7.53       0.36       0.36
      7.70       0.18       0.36
      7.48       0.25       0.42
      7.56      -0.23       0.27
      7.58       0.14      -0.07
      8.19       0.23       0.03
      7.69       0.19       0.29
      8.15       0.10       0.31
      8.81       0.29      -0.08
      8.32      -0.12       0.03
      8.00      -0.06       0.20
      8.41       0.46       0.49
      8.45       0.36      -0.17
      8.69       0.69      -0.42
      8.92       1.00      -0.30
      8.94       0.69      -0.18
      8.55       0.50      -0.12
      8.19       1.12       0.21
      8.36       0.81       0.78
      8.70       0.21       0.18
      7.89      -0.55       0.16
      7.77      -0.09       0.23
      8.06       0.67       0.08
      7.69       0.43       0.24
      8.02       0.34       0.51
      8.37       0.92      -0.22
      7.51       0.16       0.35
      7.27      -0.18       0.16
      7.52      -0.34       0.33
      7.57      -0.77       0.51
      7.19      -0.35       0.33
      7.07       0.73       0.57
      6.50       0.13       0.56
      6.69      -0.75       0.43
      7.22      -0.52       0.31
      7.14      -0.45       0.02
      7.22      -0.90      -0.25
      6.82      -0.73      -0.16
      6.63      -0.55       0.60
      7.03      -0.04       0.53
      7.09      -0.53       0.95
      7.09      -0.13       0.47
      7.03       0.14       0.10
      7.27       0.22       0.19
      7.15       0.20       0.70
      7.16       0.05       0.42
      7.43       0.22       0.35
      7.39       0.23       0.56
      7.52       0.26      -0.14
      7.48       0.02      -1.03
      7.90      -0.22       0.26
      7.77       0.32      -0.19
      8.10       0.62      -0.29
      7.18      -0.17       0.01
      7.46      -0.26       0.15
      7.30      -0.09       0.34
      7.44      -0.21       0.48
      7.98      -0.21       0.53
      7.23       0.20       0.14
      7.20       0.60      -0.23
      7.51      -0.21      -0.18
      7.85       0.54       0.28
      8.62       0.65       0.64
      8.15       0.57       0.60
      7.89       0.64       1.04
      7.80       0.26       0.48
      7.88       0.61      -0.05
      7.63       0.33      -0.15
      7.86      -0.11      -0.20
      7.85       0.88      -0.35
      7.57       0.29       0.31
      7.04       0.16       0.19
      7.34       0.40       0.39
      7.70       0.65       0.21
      7.41       0.23       0.07
      7.41      -0.32       0.37
      7.54      -0.47       0.63
      7.80      -0.08       0.13
      6.83       0.64       0.43
      7.08      -0.42       0.13
      7.04      -1.57      -0.35
      7.62      -1.07       0.02
      7.50      -0.49       0.97
      8.12       0.08      -0.17
      8.72       0.17      -0.54
      6.93       0.02       0.47
      5.71      -0.19       0.57
      6.26      -0.14       0.34
      5.94       0.32       0.39
      5.89       0.44       0.83
      6.48       0.27       0.46
      6.90      -0.27      -0.21
      6.48      -0.22       0.21
      6.57       0.06       0.38
      6.95      -0.06       0.04
      7.03       0.24       0.66
      7.44       0.44      -0.02
      6.86       0.04       0.44
      6.26      -0.04       0.62
      6.34       0.18       0.30
      6.81       0.44       0.89
      6.56      -0.39       0.80
      6.47      -0.45       0.10
      6.67      -0.25       0.51
      6.82      -0.09       0.08
      6.65       0.00       0.65
      7.31       0.12      -0.10
      7.68       0.03      -0.21
      6.97       0.40       0.44
      7.00       0.48       0.34
      7.02       0.33       0.30
      7.50       0.77       0.13
      7.17       0.77      -0.06
      7.25       0.16       0.27
      7.54       0.36       0.06
      7.52       0.34      -0.08
      7.46       0.76      -0.12
      7.91       0.50       0.45
      7.65       0.34       0.37
      7.79      -0.12       0.57
      7.74       0.18       0.37
      7.80      -0.13       0.17
      8.20      -0.20      -0.38
      7.63       0.01       0.57
      6.49      -0.20       0.67
      6.97       0.26       0.84
      6.72      -0.38       0.76
      7.04      -0.79       0.20
      7.36      -1.06      -0.26
      6.83      -0.63       0.96
      6.96      -0.23       0.39
      6.78      -0.19       0.32
      7.02       0.32       0.25
      7.21       0.23       0.02
      7.13       0.60      -0.06
      6.96       0.34      -0.42
      6.90       0.31       0.28
      6.96       0.04       0.06
      7.00      -0.18       0.07
      7.47       0.25      -0.14
      7.34       0.09      -0.16
      7.73      -0.06      -0.24
      7.97      -0.35      -0.51
      7.82      -0.15      -0.30
      7.74       0.21      -0.84
      7.57       0.25      -0.35
      7.04       0.48       0.10
      6.86       0.18       0.19
      6.75      -0.20       0.35
      6.66      -0.47       0.51
      6.78      -0.16       0.82
      7.01      -0.08       0.34
      6.79       0.20       0.26
      6.87       0.30       0.54
      6.68       0.09       0.70
      6.11       0.04       0.92
      6.29       0.02       0.85
      6.63       0.34       0.36
      6.95       0.36       0.39
      7.53       0.53       0.19
      7.52       0.11      -0.17
      7.88       0.03      -0.33
      7.80      -0.19       0.01
      7.66       0.61      -0.07
      7.76       0.71      -0.02
      7.75       0.44      -0.12
      7.77      -0.09      -0.17
      7.69      -0.04       0.11
      7.39       0.12      -0.40
      7.15      -0.01       0.19
      7.27       0.02       0.21
      7.76      -0.28       0.09
      6.26       0.30       0.80
      7.68      -0.78      -0.12
      7.69      -1.03      -0.00
      7.38      -0.20       0.08
      7.08      -0.77       0.25
      6.68      -0.54       0.54
      6.68       0.04       0.37
      7.05       0.13       0.25
      7.33       0.05       0.08
      7.41       0.40      -0.05
      7.43       0.49      -0.41
      7.60       0.44      -0.24
      7.46       0.35      -0.25
      6.86      -0.17       0.60
      7.15      -0.28       0.04
      7.61      -0.47       0.38
      7.65       0.07       0.22
      7.98      -0.22       0.11
      8.33      -0.15      -0.62
      7.72       0.54      -0.56
      7.35       0.61       0.04
      7.73       0.07      -0.21
      7.71       0.15      -0.41
      8.34      -0.40      -0.41
      8.32      -0.35      -0.02
      7.91      -0.16      -0.05
      7.86      -0.10       0.03
      7.44       0.70       0.12
      7.46       0.38      -0.46
      7.13       0.16       0.21
      7.14       0.14       0.21
      6.54       0.13       0.37
      6.76       0.33       1.00
      7.74       0.12       0.32
      7.42       0.30      -0.35
      7.67       0.14      -0.57
      7.77      -0.12      -0.34
      8.13       0.13      -0.64
      7.63       0.38      -0.09
      7.84       0.86      -0.13
      7.86       0.22      -0.25
      7.46       0.55       0.18
      7.39       0.48       0.06
      7.31       0.30       0.02
      7.25       0.50      -0.08
      7.28      -0.05      -0.13
      7.22      -0.20       0.05
      8.09      -0.14      -0.03
      7.85      -0.81      -0.05
      8.27      -0.63      -0.35
      8.16      -0.22      -0.32
      8.11      -0.45       0.31
      8.25      -0.92       0.05
      7.80      -0.51       0.13
      7.63       0.14       0.36
      7.47       0.40       0.27
      7.39       0.63       0.01
      8.02      -0.15      -0.28
      7.72       0.71      -0.28
      7.46       0.99      -0.08
      7.79       0.20       0.43
      8.22      -1.05      -0.10
      8.16      -0.39      -0.41
      8.13      -0.41      -0.01
      7.94      -0.01      -0.46
      8.22       0.08      -0.08
      7.58       0.11      -0.37
      8.45       0.11      -0.49
      8.70      -0.03      -0.30
      8.33       0.01      -0.19
      8.22      -0.17      -0.43
      7.68      -0.16       0.35
      7.08      -0.51       0.27
      7.17      -0.27       0.22
      7.88       0.69       0.56
      7.93       0.51       0.12
      7.53       0.45      -0.35
      7.40      -0.28       0.37
      7.65      -0.34       0.27
      7.56       0.18       0.18
      7.66       0.10       0.20
      7.78       0.24       0.02
      7.28       0.28       0.08
      7.12       0.12       0.05
      7.36      -0.12      -0.25
      7.82      -0.19      -0.51
      7.63       0.42      -0.28
      7.57       0.87       0.28
      7.91       0.85      -0.37
      8.06       0.01      -0.12
      7.76       0.44      -0.17
      8.22      -0.03      -0.36
      8.30      -0.05      -0.21
      8.02      -0.86      -0.07
      8.16      -0.01      -0.28
      8.15      -0.49      -0.53
      8.25      -0.31      -0.24
      8.42       0.53       0.04
      8.33      -0.45       0.43
      8.36      -0.66       0.58
      8.74      -0.94       0.10
      8.15      -0.16       0.02
      7.71       0.62      -0.06
      7.89       0.46       0.02
      7.75       0.26      -0.58
      6.84       0.66      -0.06
      7.65      -0.05       0.17
      8.25      -0.10      -0.32
      8.00      -0.65       0.26
      7.53      -0.20       0.45
      7.48      -0.00       0.48
      7.89      -0.21       0.48
      8.16      -0.29      -0.05
      8.75       0.01      -0.59
      8.77      -0.13      -0.21
      8.52      -0.07      -0.33
      8.34       0.28      -0.04
      7.93       0.35       0.22
      7.65       0.36      -0.01
      7.91       0.51      -0.42
      7.24       0.07       0.61
      7.16      -0.39       0.48
      7.62       0.26       0.21
      7.74       0.05       0.08
      7.24      -0.30       0.32
      6.79      -0.50       0.40
      7.23      -0.68       0.21
      7.65      -0.42      -0.15
      7.93      -0.16      -0.06
      7.71      -0.10      -0.32
      7.50       0.21      -0.20
      7.21      -0.38      -0.52
      7.43       0.04      -0.25
      7.53       0.30       0.05
      8.00       0.26       0.04
      7.61       0.20      -0.06
      7.45      -0.18      -0.09
      7.86       0.02      -0.14
      8.12      -0.02      -0.24
      8.25       0.21      -0.31
      7.73      -0.38       0.27
      7.66      -0.18      -0.45
      8.08      -0.65      -0.09
      8.18      -0.87      -0.47
      7.92      -0.66      -0.92
      8.12      -0.41      -1.22
      8.72      -0.67      -1.08
      9.13      -0.49      -0.74
      8.80      -0.31      -0.40
      8.87       0.26      -0.71
      9.01       0.25      -0.39
      8.16       0.38      -0.32
      8.30       0.58      -0.70
      7.76       0.11      -0.16
      7.91       0.29       0.09
      8.34      -0.04       0.20
      7.51      -0.12       0.22
      7.70       0.18      -0.09
      7.35      -0.62       0.03
      8.28      -0.41      -0.14
      8.03      -0.15       0.18
      7.97       0.31       0.39
      7.88       0.16      -0.02
      8.01       0.38      -0.02
      7.33       0.31       0.05
      7.58       0.55      -0.06
      7.79       0.37       0.24
      7.49       0.33       0.66
      7.36      -0.08       0.21
      7.85       0.22      -0.14
      7.57      -0.62       0.21
      7.54       0.04       0.10
      8.15      -0.18      -0.17
      7.12      -0.91       0.46
      7.55      -0.55      -0.30
      7.89       0.29      -0.37
      7.83       0.34       0.11
      7.63       0.35      -0.07
      7.65       0.42      -0.77
      7.36       0.29       0.19
      6.94       0.13       0.20
      7.04      -0.54      -0.31
      7.50       0.20      -0.14
      7.79       0.02      -0.78
      7.80      -0.42      -0.13
      8.01      -0.10       0.18
      7.66       0.13       0.55
      6.98      -0.48       0.68
      7.34      -0.24      -0.09
      7.66      -0.95      -0.34
      7.11      -1.01       0.13
      7.17      -0.67       0.34
      7.04      -0.76       0.54
      7.05      -1.24       0.05
      7.37      -0.49      -0.04
      8.16      -0.27      -0.17
      8.04       0.80       0.20
      8.00       0.35      -0.15
      7.91       0.50      -0.46
      8.26       0.41      -0.19
      5.37       0.30      -0.39
      5.67       1.01       0.28
      4.40       0.33       0.38
      4.25       0.35       0.17
      4.74       0.21       0.25
      4.82      -0.50       0.22
      4.82      -0.34       0.71
      5.15      -0.07       0.08
      5.33       0.21      -0.00
      5.86       0.29       0.13
      5.72       0.52       0.83
      5.95       0.54       0.44
      7.34       0.11      -0.02
      7.68       0.76       0.10
      8.00       0.26       0.24
      7.28      -0.26       0.83
      7.38      -0.06       0.25
      7.36      -0.30       0.41
      7.61      -0.05      -0.16
      7.43      -0.44      -0.11
      7.64       0.08      -0.48
      7.54      -0.07       1.04
      7.36       0.25      -0.30
      6.73       0.45       0.42
      6.96       0.26      -0.27
      6.70       0.05       0.03
      7.57       0.36       0.11
      6.91       0.05      -0.04
      6.75      -0.15       0.39
      6.36      -0.81      -0.22
      6.58      -0.14      -0.16
      6.77      -0.38      -0.08
      7.37       0.42      -0.27
      7.66       0.54       0.14
      6.93       0.14       0.65
      7.50      -0.54      -0.47
      6.63      -0.38      -0.00
      7.01       0.03       0.63
      6.74      -0.45      -0.08
      7.19      -0.46       0.12
      6.40      -0.41      -0.14
      6.64      -0.36       1.05
      7.12       0.75       1.17
      7.29       0.26      -0.03
      7.27       0.22      -0.40
      7.40       0.22      -0.60
      7.38       0.34      -0.57
      4.89       0.56       0.35
      3.83       0.22       0.22
      4.31       0.12       0.27
      3.48       0.30       0.68
      3.65      -0.43       0.44
      3.00      -0.14       0.75
      3.30      -0.17       0.84
      2.62       0.07       0.95
      2.52       0.67       1.21
      3.05       0.71       1.03
      3.61       0.47       0.40
      4.09       0.77       0.55
      7.54       0.09       0.22
      7.32       0.23       0.54
      7.54      -0.01       0.52
      7.51       0.15       0.40
      7.82      -0.27       0.26
      7.79      -0.13       0.17
      7.84      -0.26       0.09
      7.53       0.01      -0.02
      7.56      -0.44      -0.29
      8.20       0.65      -0.25
      7.12       0.04       0.67
      7.08      -0.07       0.29
      6.77      -0.06       0.18
      7.00       0.01       0.16
      7.19       0.10       0.17
      7.18       0.42      -0.00
      7.11       0.20       0.14
      6.59      -0.00       0.83
      6.53      -0.72      -0.21
      6.67      -0.18      -0.47
      6.94      -0.27      -0.10
      7.17       0.31       0.22
      7.01      -0.01       0.30
      7.16       0.04      -0.42
      6.93      -0.48      -0.12
      7.04      -0.24       0.19
      6.44      -0.46       0.41
      6.88      -0.77       0.65
      6.50      -0.63       0.49
      7.26       0.40       0.40
      6.84      -0.37       0.17
      7.06       0.29       0.37
      7.02       0.14       0.21
      6.94       0.05       0.45
      7.19       0.38       0.35
      4.26       0.15       0.13
      3.56      -0.03       0.35
      3.62       0.19       1.24
      4.05      -0.46       0.63
      3.76      -0.44       0.42
      4.14      -0.61      -0.14
      4.14      -0.32       0.49
      3.99      -0.35       0.44
      3.99       0.00       0.88
      4.16      -0.07       0.54
      3.89      -0.00       0.59
      4.38       0.15       0.30
      7.34       0.44       0.32
      7.20       0.22       0.94
      7.62       0.07       0.45
      7.26      -0.18       0.48
      7.39      -0.66       0.48
      7.69      -0.27       0.28
      8.44      -0.08      -0.04
      7.89      -0.00      -0.05
      7.07      -0.25       0.02
      7.00       0.02       0.25
      6.74       0.12       0.16
      7.28      -0.07       0.25
      7.35      -0.02       0.01
      7.85      -0.27      -0.24
      7.37       0.44      -0.26
      7.24       0.41      -0.21
      6.89       0.40       0.03
      6.80       0.53       0.23
      7.04      -0.78      -0.72
      6.74      -1.15      -0.27
      8.24      -0.34      -0.66
      7.26       0.41      -0.16
      7.06       0.21       0.47
      6.93       0.04      -0.07
      6.49      -0.18       0.21
      6.81      -0.58       0.08
      6.45      -0.41       0.03
      7.03      -0.65       0.00
      7.20      -0.39      -0.17
      6.94      -0.43      -0.06
      7.27      -0.42      -0.05
      7.24       0.00       0.25
      6.76       0.26       0.23
      6.29       0.20       0.28
      6.59       0.18       0.57
      4.15      -0.38       1.00
      3.05       0.08       0.92
      3.07      -0.55      -0.00
      3.36      -0.82       0.24
      3.65      -0.57       0.11
      3.46      -0.46      -0.03
      3.76      -0.54      -0.13
      3.92      -0.16       0.46
      3.88      -0.10       0.48
      3.82      -0.07       0.47
      4.26       0.17       0.50
      4.43       0.01       0.38
      7.81       0.00      -0.24
      7.95       0.41      -0.42
      7.47       0.47       0.06
      7.74       0.15       0.23
      7.20      -0.52       0.58
      7.10      -0.03       0.66
      7.20      -0.68       0.19
      6.58       0.16       0.26
      6.94       1.21       0.20
      6.81       0.42       0.19
      7.30      -0.45      -0.16
      7.63      -0.61      -0.10
      6.93      -0.66       0.48
      7.47       0.86       0.54
      7.36       0.37       0.15
      7.39       0.59      -0.04
      7.25       0.86      -0.22
      7.96      -0.18      -0.60
      7.64      -0.69      -0.65
      7.29      -0.39      -0.65
      6.09      -0.77       0.32
      6.67      -0.09       0.61
      6.89       0.46       0.23
      8.02      -0.23      -0.24
      7.81      -0.20      -0.45
      7.25       0.03       0.46
      6.70      -0.79      -0.03
      6.42      -0.45       0.64
      6.52      -0.39       0.37
      6.10      -0.41       0.11
      5.79      -0.46       0.61
      6.43      -0.59       0.30
      6.41      -0.27       0.36
      7.05      -0.41       0.20
      6.74       0.07       0.11
      3.99      -0.02       0.30
      2.39       0.11       0.07
      3.15      -0.50      -0.03
      3.84      -0.58       0.19
      4.38      -0.56       0.45
      4.90      -0.34       0.40
      4.94      -0.07       0.29
      4.92      -0.10       0.31
      5.08      -0.32       0.54
      5.32      -0.28       0.63
      5.59      -0.05       0.04
      5.57       0.13       0.12
      7.74       0.24      -0.35
      7.25      -0.19      -0.06
      7.74      -0.17      -0.25
      8.17       0.18      -0.32
      8.83       0.19      -0.15
      8.36       0.22       0.17
      7.95       0.16       0.05
      7.48      -0.21       0.24
      7.75       0.04      -0.34
      8.00       0.10      -0.29
      7.71      -0.13       0.09
      8.10      -0.40      -0.85
      6.86      -0.56       0.61
      6.74       0.07       0.15
      6.87       0.52       0.79
      7.09      -0.16       0.75
      7.81       0.56       0.43
      8.13      -0.49      -0.19
      7.69      -0.14      -0.13
      7.38      -0.04      -0.36
      7.66       0.24       0.15
      7.68      -0.54      -0.63
      7.62       0.29      -0.16
      7.52       0.31      -0.50
      7.26      -0.01      -0.15
      7.10       0.25       0.22
      7.07       0.34      -0.44
      6.88      -0.25      -0.60
      6.72      -0.65       0.75
      7.28      -0.47       0.50
      7.37      -0.64       0.07
      7.39      -0.74       0.08
      8.24      -1.04      -0.09
      7.42      -0.64       0.12
      7.17      -0.57       0.40
      7.13      -0.19      -0.13
      7.18       0.30      -0.79
      7.01       0.33       0.27
      7.44      -0.19       0.08
      7.30      -0.38      -0.18
      7.42      -0.31       0.01
      7.36      -0.33       0.25
      7.11      -0.47       0.46
      7.58      -0.54       0.09
      7.33      -0.71      -0.17
      6.95       0.09      -0.42
      7.23      -0.17      -0.91
      7.84      -0.32      -0.35
      8.05      -0.20      -0.24
      7.38      -0.26      -0.47
      6.72      -0.23      -0.39
      7.03       0.16       0.10
      6.99      -0.08       0.32
      7.45       0.39       0.11
      7.97      -0.24      -0.11
      8.03       0.28      -0.59
      7.99      -0.06      -0.50
      7.18      -0.37      -0.11
      7.67       0.44      -0.58
      7.62       0.66       0.21
      6.34      -0.14       0.43
      7.39      -0.35       0.59
      7.17      -0.48       0.82
      7.39      -0.53       0.18
      8.10      -0.42       0.22
      8.11      -0.52       0.45
      7.87       0.05      -0.55
      8.17       0.70      -0.55
      8.02       0.31       0.07
      6.75       0.36      -0.22
      8.06      -0.08      -0.29
      7.74       0.18      -0.34
      7.43       0.31      -0.02
      7.28       0.11      -0.28
      7.70       0.20      -0.80
      7.56      -0.36      -0.31
      8.18      -0.64       0.30
      7.96      -0.22      -0.08
      8.03      -0.30      -0.10
      7.99      -0.76      -0.19
      7.15      -0.38       0.57
      7.65      -0.38      -0.15
      7.26       0.16      -0.75
      7.05       0.51      -0.89
      7.57      -0.38      -0.95
      7.71      -0.23      -0.96
      7.49       0.21      -0.61
      7.24      -0.18       0.74
      7.40      -0.27       0.53
      7.78      -0.78      -0.08
      8.09      -0.61      -0.02
      8.02      -0.51       0.43
      7.14      -0.54      -0.02
      7.44      -0.45       0.09
      7.82      -0.25      -0.31
      7.62      -0.38       0.12
      6.73       0.11       0.18
      6.67      -0.19       0.37
      6.90      -0.21       0.38
      7.02      -0.21       0.68
      6.66      -0.22       0.11
      7.05      -0.12       0.32
      6.75      -0.07       0.52
      6.58       0.81       0.35
      7.43      -0.50       0.42
      6.73       0.43       0.46
      7.83       0.16      -0.14
      8.57       0.35       0.43
      7.11      -0.45       0.33
      7.02      -0.54      -0.06
      7.54      -1.01      -0.24
      7.54      -1.20       0.74
      7.00      -0.21       0.50
      6.58      -0.18       0.55
      6.89       0.62       0.00
      7.18       0.80       0.41
      7.46       0.30       0.07
      8.03       0.12      -0.18
      7.75       0.75      -0.04
      8.18       0.41      -0.60
      7.63      -0.25      -0.44
      7.71      -0.44      -0.34
      7.92       0.15      -0.36
      8.44      -0.10      -0.25
      8.40       0.02      -0.10
      8.78      -0.20      -0.05
      8.56      -0.24      -0.62
      7.86       0.45       0.10
      8.09      -0.35       0.22
      8.01      -0.42       0.19
      7.46       0.10      -0.09
      7.85      -0.74      -0.25
      7.90      -0.10      -0.30
      8.00       0.33      -0.80
      8.27       0.21      -1.01
      8.89      -0.13      -1.09
      8.07      -0.33      -0.74
      8.05       0.11      -0.26
      8.23      -0.36       0.14
      8.02      -0.82       0.23
      7.99      -0.45      -0.27
      7.68      -0.57      -0.10
      7.18       0.09      -0.20
      6.80       0.36      -0.13
      7.16       0.13       0.22
      6.80      -0.35       0.45
      7.16      -0.14       0.78
      7.65      -0.88       0.38
      7.18       0.31       0.50
      7.07       0.27      -0.51
      7.56       0.11       0.36
      7.72      -0.70      -0.19
      7.48      -0.58      -0.03
      8.20      -0.91       0.29
      8.18      -0.47      -0.62
      8.58      -0.36      -0.48
      7.71       0.02      -0.32
      7.23      -0.10       0.11
      7.07      -0.21       0.58
      6.96      -0.36       0.80
      6.99      -0.48       0.10
      6.76      -0.10       0.62
      7.39       0.04      -0.35
      7.81       0.16       0.02
      8.73      -0.39      -0.31
      7.92       0.84       0.29
      7.84       0.66      -0.31
      7.96      -0.15      -0.79
      7.96      -0.36      -0.51
      8.47      -0.26      -0.35
      8.15      -0.46      -0.09
      8.58      -0.51       0.04
      8.37      -0.27       0.23
      7.74       0.04       0.02
      8.17      -0.29       0.11
      9.05      -0.06      -0.07
      8.05      -0.57       0.52
      7.91      -0.35       0.08
      7.52      -0.29      -0.02
      7.10      -0.72       0.31
      7.85       0.08      -0.89
      7.14      -0.25      -0.09
      7.54      -0.48      -0.08
      8.13      -0.86      -0.33
      8.75       0.01      -0.66
      9.09      -0.29       0.23
      7.93      -0.31      -0.25
      7.35      -0.20      -0.07
      7.50       0.07       0.12
      7.11       0.18       0.07
      7.43       0.45       0.04
      7.10       0.24       0.42
      7.34      -0.70       0.79
      7.59      -0.90       0.20
      7.69      -1.30       0.03
      7.43       0.06       0.35
      7.72       0.01       0.09
      7.75      -0.18      -0.06
      7.74      -0.57      -0.09
      7.71      -0.58      -0.10
      8.03      -1.02      -0.12
      7.82      -0.56       0.25
      8.02      -0.41      -0.72
      8.23       0.16      -0.75
      8.33      -0.09      -0.44
      8.53      -0.10      -0.76
      8.11       0.09       0.69
      7.90      -0.58       0.19
      7.25      -0.46       0.26
      7.21      -0.27       0.13
      7.39       0.04      -0.07
      7.43      -0.08       0.55
      7.55      -0.07       0.64
      8.21       0.57       0.07
      8.50      -0.21      -0.59
      8.42       0.04      -1.01
      8.57       0.18      -0.57
      8.45      -0.63      -0.63