# vtk DataFile Version 3.0
Low resolution, disturbed wind of XZ Slice at time = 6 seconds.
ASCII
DATASET STRUCTURED_POINTS
DIMENSIONS    47     1    12
ORIGIN     635.00    1000.00      15.00
SPACING      30.00      30.00      30.00
POINT_DATA             564
VECTORS DisXZ float
      4.36      -0.33      -0.14
      4.81      -0.06       0.07
      4.76      -0.20      -0.07
      5.28       0.61      -0.03
      5.05       0.51      -0.06
      4.71       0.29      -0.01
      4.89       0.73       0.12
      5.54       0.10      -0.00
      5.66       0.37      -0.44
      6.09       0.95      -0.14
      7.06      -0.11      -0.37
      6.31      -0.58      -0.45
      5.77       0.12      -0.41
      5.48      -0.71       0.95
      4.57       0.32       0.57
      3.58      -0.22       0.60
      3.84       0.90       0.56
      4.83       0.30       0.04
      4.84      -0.60      -0.36
      4.65      -0.60       0.34
      4.31       0.33       0.23
      3.34      -0.07       0.20
      3.86       0.41      -0.23
      4.00      -0.21      -0.07
      4.68      -0.23      -0.06
      5.14       0.94      -0.21
      4.78       0.70      -0.19
      4.27       0.01       0.41
      4.65       0.35       0.24
      4.45      -0.83      -0.11
      4.77       0.63      -0.25
      5.03       0.57      -0.49
      5.48       0.19      -0.37
      6.01       1.22      -0.15
      6.41       0.49      -0.26
      4.96      -0.41       0.31
      5.07       0.82       0.35
      5.67      -0.36       0.13
      5.10       0.17       0.10
      5.58       0.15      -0.66
      5.53      -0.05       0.17
      5.17       0.11       0.13
      7.34      -0.68      -0.32
      4.06       0.37      -0.03
      4.69       0.71       0.23
      4.69       0.61      -0.02
      4.76       0.25      -0.43
      6.19       0.71      -0.02
      6.54       0.15      -0.19
      6.10      -0.03      -0.27
      6.40       0.31      -0.21
      6.43       0.08       0.04
      5.54      -0.63       0.03
      6.15      -0.13       0.18
      6.61       0.34      -0.07
      6.42      -0.05       0.17
      6.76       0.51       0.06
      7.10       0.33       0.09
      7.45       0.06      -0.12
      2.72      -0.57       0.22
      2.27      -0.71       1.14
      2.76      -0.75       0.71
      7.40      -0.46       0.04
      6.70      -0.66       0.38
      7.14      -0.19      -0.30
      7.18      -0.40      -0.48
      6.72      -0.58       0.61
      7.27      -0.32      -0.29
      5.81       0.18      -0.21
      5.70       0.23       0.19
      6.30       0.61       0.34
      6.12       0.47       0.19
      5.93       0.64      -0.25
      6.39       0.36      -0.30
      6.03       0.24       0.35
      5.95       0.13       0.34
      6.62       0.52       0.35
      6.27       0.30       0.26
      5.34       0.13      -0.03
      6.19      -0.48      -0.00
      7.17      -0.35      -0.42
      6.73       0.51      -0.31
      6.66       0.65      -0.48
      6.58       0.26      -0.03
      5.24       0.89       0.13
      5.83       0.16       0.38
      6.52       0.04      -0.50
      7.23      -0.19      -0.33
      5.61      -0.36       0.16
      5.62      -0.25       0.58
      6.03       0.15       0.15
      6.59       0.55       0.02
      6.17       0.96       0.10
      6.49       0.62       0.36
      6.69       0.35      -0.07
      6.87       0.48       0.03
      6.44       0.01       0.22
      6.96      -0.28       0.24
      6.75      -0.30       0.29
      6.55      -0.17       0.06
      6.46      -0.26       0.27
      6.93       0.30       0.24
      6.94       0.27       0.51
      6.95       0.36       0.34
      7.20       0.46       0.30
      7.41       0.54       0.12
      3.74      -0.24       0.42
      4.60      -0.51       0.59
      4.99      -0.27       0.62
      7.68       0.33       0.11
      7.68      -0.38       0.16
      7.72      -0.49      -0.12
      7.49      -0.20      -0.15
      7.22      -0.66       0.17
      7.35      -0.19      -0.26
      6.73      -0.13      -0.22
      6.49       0.33       0.48
      6.58       0.37       0.21
      7.30       0.01      -0.00
      6.91      -0.38       0.28
      7.46      -0.32       0.30
      7.43       0.37       0.05
      6.65       0.52       0.02
      6.59       0.17       0.08
      6.10      -0.32       0.46
      6.45      -0.06       0.72
      6.92      -0.38      -0.52
      7.57      -0.43      -0.59
      7.04      -0.46      -0.36
      7.10       1.04       0.25
      7.72       0.75      -0.54
      6.50       0.67       0.24
      7.49       0.44      -0.62
      7.54      -0.00      -0.28
      7.70       0.02      -0.76
      7.75      -0.22       0.21
      6.66      -0.38       0.67
      6.72      -0.14      -0.30
      6.20      -0.26      -0.13
      6.12       0.21      -0.06
      5.87       0.04      -0.06
      6.13       0.07       0.20
      6.16      -0.22       0.10
      6.58      -0.02       0.45
      7.24      -0.27       0.30
      7.73      -0.50       0.20
      7.95      -0.62       0.19
      7.43      -0.73       0.39
      7.32      -0.67       0.22
      7.11      -0.11       0.64
      7.25       0.41       0.47
      7.53       0.42       0.25
      7.74       0.55       0.26
      7.78       0.83       0.04
      4.70       1.15       0.44
      4.77       1.11       0.31
      8.09       0.72      -0.01
      8.44       0.12       0.12
      8.29       0.11       0.41
      8.20       0.00      -0.13
      8.38      -0.14       0.01
      8.36      -0.20      -0.11
      8.03       0.24       0.20
      8.00       0.45       0.39
      7.55      -0.01       0.44
      8.20      -0.52       0.22
      8.10       0.18      -0.36
      8.26      -0.03      -0.09
      8.61      -0.02       0.06
      7.30       0.39      -0.06
      6.92      -0.07       0.03
      7.52       0.39       0.20
      8.17      -0.16      -0.43
      8.56      -0.57      -0.13
      7.56      -0.07      -0.32
      6.97      -0.66      -0.06
      7.89      -0.66       0.07
      8.14      -0.67      -0.36
      7.52      -0.02      -0.04
      7.89       0.32       0.20
      8.31       0.40      -0.48
      8.10      -0.04      -0.37
      8.89      -0.39      -0.64
      8.54       0.22       0.22
      7.30       0.44       0.57
      7.73       0.02      -0.55
      7.65      -0.43      -0.34
      7.45      -0.62      -0.09
      6.55      -0.24      -0.03
      7.00      -0.20      -0.29
      7.38      -0.28       0.32
      7.31      -0.40       0.35
      7.12      -0.22       0.27
      7.14      -0.19       0.37
      7.12      -0.25       0.54
      7.19      -0.03       0.48
      7.44       0.16       0.27
      7.54       0.09       0.31
      7.85      -0.24       0.35
      8.01      -0.19       0.28
      8.07      -0.05       0.16
      3.72       0.17       0.40
      4.17       0.48       0.70
      8.75       0.55       0.18
      8.49       0.66       0.36
      8.54       0.20       0.41
      8.50      -0.19      -0.14
      8.57       0.05      -0.00
      8.23       0.15       0.07
      7.95       0.07       0.19
      8.23       0.03       0.23
      8.30      -0.09      -0.06
      8.93      -0.02      -0.08
      8.90      -0.03       0.13
      7.74      -0.20       0.06
      7.93      -0.07       0.29
      7.55      -0.21       0.51
      7.61      -0.54       0.39
      7.94      -0.52       0.12
      7.77      -0.18       0.32
      7.78      -0.18       0.19
      8.17      -0.31       0.29
      8.31      -0.57       0.04
      8.77      -1.17       0.06
      8.92      -0.68       0.22
      8.38      -0.20       0.04
      8.54      -0.30      -0.20
      8.74      -0.14      -0.11
      9.26       0.06      -0.03
      8.85      -0.21      -0.35
      7.88      -0.22       0.69
      7.59       0.29       0.52
      7.77      -0.13      -0.20
      8.25       0.09      -0.65
      8.42      -0.41      -0.36
      8.02       0.34      -0.60
      8.17       0.43      -0.77
      8.31       0.05      -0.23
      7.12      -0.25       0.61
      7.35      -0.02       0.76
      7.88       0.19       0.63
      8.12       0.12       0.44
      8.11       0.01       0.24
      8.12       0.19       0.08
      8.36       0.04      -0.15
      8.06       0.06       0.09
      7.74       0.29       0.41
      8.10      -0.03       0.32
      6.88      -0.26      -0.23
      6.58       0.47      -0.11
      8.25       0.99       0.76
      8.31       0.13       0.74
      8.60       0.08       0.20
      8.59       0.15       0.02
      8.74      -0.02       0.06
      9.16      -0.31      -0.08
      8.77       0.02       0.24
      8.87       0.53      -0.16
      8.77       0.35      -0.47
      8.58      -0.25      -0.02
      8.40      -0.25       0.31
      8.44       0.16       0.10
      8.29      -0.04       0.31
      7.97       0.05       0.43
      7.77      -0.18       0.20
      7.72      -0.55       0.49
      8.25      -0.89       0.48
      8.14      -0.71       0.31
      7.85      -0.57       0.24
      8.06      -0.57       0.38
      8.31      -0.62       0.32
      8.58      -0.52       0.33
      8.84      -0.22       0.09
      9.13      -0.36       0.09
      9.14      -0.20      -0.21
      8.64       0.24      -0.60
      9.13       0.21       0.37
      8.10      -0.08       0.53
      8.39      -0.13       0.16
      8.55       0.00      -0.37
      8.34       0.37      -0.72
      8.52       0.19      -0.29
      8.60      -0.40      -0.61
      8.67       0.37      -0.58
      8.90      -0.25      -0.40
      8.84      -0.30       0.27
      8.62      -0.31       0.48
      8.20      -0.25       0.84
      8.42      -0.08       0.55
      8.50      -0.64       0.10
      8.15      -0.82      -0.18
      8.46      -1.02      -0.17
      8.80      -0.13      -0.09
      8.67      -0.02      -0.09
      9.08       0.14      -0.20
      9.22       0.25      -0.48
      9.42       0.21      -0.39
      9.61       0.19       0.45
      9.33       0.81       0.52
      9.68       0.29       0.21
      9.47      -0.24       0.01
      9.14      -0.14       0.06
      9.12      -0.27       0.04
      8.82      -0.47       0.10
      9.00      -0.46      -0.19
      9.23      -0.13      -0.45
      8.99       0.05       0.18
      8.66      -0.09       0.48
      8.58      -0.00      -0.02
      9.02      -0.10       0.09
      9.50       0.10       0.40
      8.50       0.03       0.69
      8.48       0.00       0.28
      8.66      -0.65      -0.19
      8.93      -0.70      -0.07
      9.04      -0.45       0.05
      8.88      -0.53       0.11
      8.56      -0.78       0.09
      8.57      -0.88       0.36
      8.98      -0.74       0.33
      9.18      -0.94       0.19
      9.36      -0.53       0.23
      9.59      -0.20       0.10
      9.43      -0.06       0.52
      9.61       0.12       0.44
      9.38       0.35       0.16
      9.60      -0.27      -0.50
      9.18      -0.12      -0.73
      8.35       0.41      -0.05
      8.89      -0.67      -0.06
      8.54       0.21       0.13
      8.69      -0.39       0.35
      8.57      -0.89       0.35
      8.42      -0.68       0.26
      8.56      -0.43       0.58
      9.09      -0.37       0.59
     10.04      -0.58       0.23
      9.51      -0.34      -0.05
      8.92      -0.92       0.69
      8.39      -1.75       0.34
      8.41      -1.42      -0.25
      8.59      -0.95      -0.37
      8.38      -0.92      -0.65
      8.61      -0.59      -0.46
      8.86      -0.27       0.38
      9.08      -0.37       0.67
      9.28      -0.39       0.33
      9.18      -0.14       0.36
      8.73      -0.43       0.37
      8.77      -0.82       0.25
      9.00      -0.94       0.04
      9.02      -0.90      -0.41
      9.27      -0.42      -0.26
      9.33      -0.11      -0.02
      9.63      -0.37       0.18
      9.86      -0.01      -0.01
      9.60      -0.02      -0.12
      8.99      -0.27       0.41
      9.00       0.04       0.52
      9.30       0.07       0.06
      9.28      -0.15      -0.32
      9.36      -0.46      -0.18
      8.94      -0.38       0.14
      9.14      -0.72       0.19
      9.83      -1.28      -0.24
      9.64      -1.27      -0.14
      9.16      -0.76       0.34
      9.11      -0.76       0.32
      9.31      -0.83       0.37
      9.56      -0.58       0.45
      9.44      -0.24       0.64
      9.72       0.28       0.43
     10.13       0.13      -0.01
      9.38      -0.17      -0.35
      9.17      -0.57      -0.45
      9.39      -0.51      -0.42
      9.26      -0.22       0.05
      8.90      -0.48       0.22
      8.88      -0.37       0.50
      9.19      -0.59       0.52
      8.97      -0.75       0.23
      9.17      -0.95       0.41
      9.48      -0.47       0.22
     10.12      -0.49       0.05
      9.93      -0.86       0.69
      8.45      -0.89       0.95
      7.92      -0.60       0.82
      8.16      -0.80       0.55
      8.74      -1.07      -0.03
      9.09      -0.90      -0.15
      8.80      -0.96      -0.17
      8.78      -1.07      -0.06
      8.81      -0.88       0.23
      8.72      -1.01       0.39
      8.75      -1.09       0.35
      8.82      -1.01       0.44
      9.15      -1.20       0.21
      9.29      -1.19      -0.20
      8.99      -0.86      -0.30
      8.73      -0.75      -0.23
      8.66      -0.74      -0.18
      8.88      -0.38      -0.13
      9.37       0.15       0.01
      9.42       0.18      -0.03
      8.97       0.00       0.12
      9.08      -0.16       0.01
      9.32      -0.24      -0.07
      9.30      -0.32      -0.17
      9.17      -0.60      -0.18
      9.23      -0.61      -0.24
      9.44      -0.52      -0.02
      9.36      -0.77       0.10
      9.45      -0.87       0.04
      9.66      -0.69      -0.20
      9.59      -0.75      -0.51
      9.63      -0.91      -0.04
      9.87      -0.99       0.50
      9.87      -1.09       0.41
      9.90      -0.87       0.08
     10.12      -0.88      -0.13
     10.13      -1.09      -0.32
     10.11      -0.75      -0.23
      9.88      -0.58      -0.54
      9.36      -0.95       0.17
      9.04      -0.59       0.18
      8.98      -0.56       0.42
      9.27      -0.85       0.52
      9.42      -0.85       0.51
      9.31      -0.33       0.06
      9.04      -0.56       0.06
      8.58      -0.91       0.55
      8.52      -0.62       0.95
      8.91      -0.00       0.64
      9.29      -0.02       0.23
      9.41      -0.36       0.14
      9.38      -0.28       0.08
      9.54      -0.50       0.24
      9.40      -0.51      -0.03
      9.30      -0.93       0.10
      9.25      -1.17       0.14
      9.32      -1.14       0.02
      9.58      -1.09       0.39
     10.09      -0.91       0.51
     10.29      -1.32       0.22
      9.81      -1.22       0.23
      9.38      -0.94      -0.10
      9.01      -1.04      -0.39
      8.97      -0.72      -0.18
      8.82      -0.39      -0.08
      8.83      -0.20      -0.17
      9.16      -0.06       0.05
      9.38       0.08       0.17
      9.33      -0.03       0.22
      9.39      -0.22       0.27
      9.70      -0.41       0.05
      9.90      -0.25      -0.31
      9.87      -0.34      -0.21
      9.77      -0.72      -0.06
      9.76      -0.90      -0.13
      9.93      -0.85      -0.18
     10.14      -0.62      -0.18
     10.17      -0.44      -0.16
     10.03      -0.35      -0.27
     10.34      -0.67      -0.23
     10.32      -0.97      -0.27
      9.89      -0.86      -0.19
     10.10      -0.91      -0.11
     10.34      -0.59      -0.51
     10.07      -0.41      -0.51
      9.96      -0.52      -0.30
      9.15      -0.34       0.58
      9.06      -0.44       0.47
      8.90      -0.59       0.49
      9.06      -0.47       0.71
      9.52      -0.10       0.66
      9.41       0.09       0.48
      8.92      -0.25       0.34
      8.88      -0.76       0.54
      9.44      -0.74       0.42
      9.85      -0.36       0.22
      9.91      -0.24       0.07
     10.05      -0.51       0.14
      9.96      -0.67       0.05
      9.91      -0.49       0.13
      9.78      -0.69       0.38
      9.64      -0.89       0.34
      9.51      -0.82       0.15
     10.03      -0.95      -0.03
      9.68      -0.93       0.12
      9.23      -1.02       0.49
      9.35      -1.21       0.56
      9.62      -1.12       0.28
      9.67      -0.82      -0.11
      9.77      -0.82      -0.18
      9.74      -1.03       0.03
      9.52      -1.06      -0.37
      9.55      -0.99      -0.37
      9.50      -0.84       0.10
      9.18      -0.49       0.19
      9.14      -0.25       0.16
      9.40      -0.19      -0.02
      9.89      -0.37      -0.22
     10.39      -0.59      -0.25
     10.32      -0.69      -0.02
      9.92      -0.51       0.10
      9.90      -0.28       0.16
     10.21      -0.37       0.01
     10.27      -0.60      -0.18
     10.28      -0.71      -0.17
     10.55      -0.55      -0.24
     10.42      -0.60      -0.09
      9.98      -0.66       0.04
     10.00      -0.94      -0.03
      9.78      -0.92      -0.19
      9.84      -0.75      -0.36
      9.94      -0.74      -0.24
      9.84      -0.95      -0.07
      9.36      -0.25       0.78
      9.62      -0.15       0.42
      9.51      -0.13       0.28
      9.26      -0.05       0.59
      9.14       0.18       0.72
      9.14       0.22       0.45
      9.22       0.06       0.21
      9.32       0.07       0.18
      9.39       0.31       0.12
      9.70       0.41       0.15
      9.86       0.50       0.23
     10.14       0.24       0.15
     10.01       0.06      -0.11
      9.95      -0.37       0.03
     10.07      -0.62       0.28
     10.04      -0.70       0.24
      9.82      -0.64       0.23
      9.57      -0.85       0.14
      9.51      -1.08       0.24
      9.51      -1.15       0.23
      9.58      -1.12       0.05
      9.72      -1.27      -0.03
      9.82      -1.54      -0.11
     10.03      -1.30      -0.07
     10.10      -1.02       0.01
      9.97      -0.91       0.04
      9.76      -0.82      -0.03
      9.57      -0.79      -0.01
      9.55      -0.81       0.08
      9.65      -0.83       0.06
      9.86      -0.72      -0.05
     10.21      -0.69      -0.22
     10.26      -0.72      -0.26
     10.31      -0.52      -0.15
     10.54      -0.47      -0.34
     10.44      -0.70      -0.28
     10.20      -0.76      -0.06
     10.13      -0.98      -0.09
     10.12      -1.11      -0.29
     10.27      -0.68      -0.29
     10.19      -0.69      -0.11
     10.02      -1.04       0.05
     10.03      -0.84       0.10
     10.07      -0.65      -0.06
     10.12      -0.73      -0.09
     10.08      -0.65      -0.02
     10.14      -0.45       0.10
