# vtk DataFile Version 3.0
Low resolution, disturbed wind of YZ Slice at time = 6 seconds.
ASCII
DATASET STRUCTURED_POINTS
DIMENSIONS     1    26    12
ORIGIN     748.00     635.00      15.00
SPACING      30.00      30.00      30.00
POINT_DATA             312
VECTORS DisYZ float
      5.83      -0.33       0.29
      6.67      -0.30       0.46
      6.06       1.08       0.17
      6.59       0.95      -0.35
      3.59       0.06       0.73
      4.06      -0.43       0.09
      7.10       0.01      -0.31
      5.83       0.12       0.05
      6.28       0.08       0.09
      4.34       0.49      -0.24
      3.88       0.23       0.50
      5.14       0.70       0.22
      5.37       0.73      -0.02
      3.76      -0.42      -0.19
      5.42      -0.37      -0.39
      4.41      -0.05      -0.23
      4.67      -0.43      -0.37
      3.72       0.53       0.03
      5.17       0.31      -0.21
      5.57       0.06      -0.10
      6.74      -0.88       0.04
      4.77       0.32       0.20
      4.56       0.05       0.18
      5.75       0.03       0.11
      5.06      -0.54       0.50
      8.03       1.14      -0.90
      7.27       1.24       0.98
      7.10       0.45       0.08
      7.13       1.03       0.15
      6.60       0.59       0.04
      4.73      -0.24       0.90
      6.28       0.13      -0.34
      7.05       0.05      -0.31
      7.67      -0.13       0.04
      7.10      -0.14       0.40
      6.47       0.49       0.66
      7.00       0.27       0.25
      7.67       0.20      -0.46
      6.62       0.20      -0.06
      5.45      -0.21       0.19
      6.43       0.12      -0.36
      5.69      -0.23      -0.19
      7.06      -0.26      -0.64
      7.70      -1.21      -0.77
      6.10      -0.87      -0.06
      5.80      -0.32       0.35
      7.04       0.31       0.11
      6.82      -0.09      -0.23
      8.08       0.44      -0.51
      6.31      -0.24       0.52
      8.42       0.54      -0.31
      8.78       0.42      -1.04
      7.94       0.23       0.64
      7.77       0.03      -0.11
      6.83      -0.39       0.18
      6.75      -0.61       0.34
      5.83      -0.39       0.18
      7.45      -0.07      -0.43
      7.56      -0.20       0.23
      7.72      -0.40       0.04
      7.50      -0.11       0.03
      6.88       0.18       0.46
      7.79       0.44       0.09
      7.27       0.14       0.33
      6.87      -0.26       0.29
      6.43      -0.46       0.20
      7.16      -0.63      -0.31
      6.51      -0.14      -0.16
      8.03      -1.34      -0.34
      8.59      -0.48      -1.06
      7.24      -0.53       0.12
      7.46      -0.47      -0.29
      7.50      -0.20      -0.24
      8.12      -0.03      -0.09
      8.72      -0.23      -0.10
      7.88       0.02      -0.47
      9.80       0.36      -0.24
      8.55       0.78      -0.55
      9.00       0.72       0.49
      8.38       0.54       0.92
      8.18       0.25       0.41
      7.65       0.26       0.35
      7.85       0.03       0.16
      7.50       0.13      -0.29
      7.92      -0.41       0.39
      7.72      -0.80       0.18
      8.10      -0.77      -0.35
      8.51      -0.73       0.01
      8.36      -0.08      -0.44
      6.91      -0.17       0.74
      7.69      -0.37       0.19
      7.23      -0.80       0.37
      7.27      -0.30      -0.40
      7.11       0.38      -0.01
      7.80       0.12      -1.05
      7.95       0.35      -0.81
      9.11       0.10      -0.49
      8.58       0.51      -0.67
      8.69       0.43      -0.73
      8.67       0.51      -0.58
      8.84       0.48      -0.31
      9.69       0.55      -0.73
      9.40       0.65      -0.38
      8.63       0.76      -0.07
      8.86      -0.21       0.79
      7.69      -0.02       0.39
      7.95       0.22       0.21
      7.81      -0.00       0.23
      7.82      -0.04      -0.09
      8.10      -0.68       0.48
      8.66      -0.87       0.06
      8.21      -0.91      -0.30
      8.90      -0.73      -0.27
      8.72      -0.53      -0.37
      7.97      -0.40      -0.05
      7.22       0.16       0.51
      7.09      -0.24       0.31
      7.53      -0.37       0.18
      8.85      -0.68      -0.77
      7.99      -0.42      -0.75
      7.98       0.23      -1.03
      8.73      -0.23      -0.91
      8.55       0.12      -0.70
      8.79       0.10      -0.47
      9.59      -0.36      -0.35
      9.92      -0.23      -0.55
     10.25       0.09      -0.47
      9.81       0.41      -0.20
      9.75       0.20      -0.75
      8.82      -0.20      -0.32
      7.94      -0.01       0.76
      7.90       0.37       0.11
      8.12       0.54      -0.02
      8.10      -0.09       0.60
      8.01      -0.67       0.74
      7.88      -0.47       0.32
      8.23      -0.21      -0.07
      8.40      -0.14      -0.13
      8.84      -0.33      -0.41
      9.36      -0.16      -0.49
      9.03      -0.09      -0.24
      7.96      -0.10       0.34
      7.24      -0.05       0.85
      7.58      -0.20       0.10
      9.04      -0.46      -0.82
      9.04      -0.69      -0.79
      8.99      -0.75      -0.79
      9.28      -0.91      -0.73
      8.85      -0.85      -0.31
      9.43      -0.56      -0.30
     10.37      -0.78      -0.23
      9.73      -0.48      -0.81
     10.03      -0.03      -0.71
     10.19       0.06      -0.64
      9.20       0.35      -0.59
      8.71      -0.38       0.09
      8.02      -0.85      -0.08
      7.86      -0.81      -0.06
      8.54      -0.71      -0.10
      7.67      -0.01       0.71
      8.58       0.06      -0.11
      8.73       0.35       0.11
      8.53       0.55      -0.09
      8.92       0.29      -0.04
      9.58       0.08      -0.61
      9.07      -0.13      -0.43
      8.92      -0.17      -0.00
      8.75      -0.73      -0.01
      8.84      -0.35       0.45
      7.81      -0.10       0.35
      8.98      -0.42      -0.48
      9.32      -0.55      -0.62
      9.56      -0.91      -0.67
      9.90      -1.21      -0.79
      9.62      -0.90      -0.43
      9.64      -1.06      -0.56
      9.78      -0.90      -0.53
     10.27      -0.98      -1.22
      9.01      -0.88      -1.20
      8.66      -0.66      -0.89
      8.80      -0.97       0.09
      8.80      -1.01      -0.32
      8.90      -0.62      -0.66
      8.54      -0.70       0.01
      8.72      -0.61      -0.32
      8.70      -0.14       0.02
      8.74      -0.06       0.11
      9.19      -0.09      -0.10
      9.39      -0.39      -0.23
      9.96      -0.66      -0.14
      9.22      -0.05      -0.49
      8.58      -0.20      -0.14
      8.52      -0.51       0.20
      8.43      -0.89       0.48
      8.37      -0.83       0.26
      8.85      -0.22       0.40
      8.83      -0.33       0.14
      9.43      -0.72      -0.03
      9.71      -1.03      -0.49
      9.74      -1.24      -0.53
      9.82      -1.18      -0.84
     10.22      -0.90      -0.49
      9.72      -1.16      -0.47
     10.70      -1.10      -0.72
     10.31      -1.27      -1.12
      9.15      -1.28      -0.90
      8.89      -0.86      -0.16
      8.71      -0.87      -0.18
      9.00       0.06      -0.65
      8.90      -0.39      -0.16
      9.48      -0.41      -0.42
      9.48      -0.35      -0.29
      9.23      -0.79       0.24
      9.19      -0.50      -0.05
      9.34      -0.19      -0.47
      9.80      -0.20      -0.28
      8.84      -0.31      -0.18
      8.78      -0.48      -0.14
      8.69      -0.79       0.20
      8.72      -0.31       0.24
      9.03      -0.71       0.33
      9.00      -0.76       0.15
      8.85      -0.79       0.34
      9.62      -1.13       0.05
      9.81      -0.63      -0.13
      9.95      -0.89      -0.36
      9.91      -0.88      -0.48
      9.85      -0.67      -0.57
     10.14      -0.91      -0.68
     10.39      -1.05      -0.67
     10.14      -1.22      -0.61
     10.02      -1.03      -0.58
      8.83      -0.73      -0.20
      8.67      -0.71      -0.09
      9.49       0.07      -0.58
      9.25       0.01      -0.27
      8.93       0.18      -0.34
      9.44      -0.09       0.00
      9.40      -0.25      -0.11
      9.80      -0.48      -0.20
      9.58      -0.51      -0.69
      9.08      -0.69      -0.17
      9.17      -0.51      -0.11
      9.19      -0.37       0.07
      9.38      -0.38      -0.01
      9.03      -0.34       0.28
      9.32      -0.76       0.56
      9.69      -1.31       0.27
      9.09      -1.29       0.84
      9.67      -1.64      -0.21
      9.63      -1.16      -0.44
     10.13      -1.29      -0.11
      9.82      -1.40      -0.55
      9.71      -1.30      -0.57
      9.93      -0.53      -0.58
     10.12      -0.95      -0.70
     10.27      -1.30      -0.54
      9.01      -1.12      -0.23
      9.01      -1.04       0.24
      9.46      -0.51       0.04
      9.93      -0.35      -0.43
      9.90      -0.21      -0.55
     10.25      -0.21      -0.55
      9.55       0.15      -0.22
      9.30      -0.02      -0.14
      9.76       0.08      -0.10
      9.86      -0.15      -0.09
      9.40      -0.07      -0.16
      9.97      -0.43       0.16
      9.83      -0.23       0.06
      9.52      -0.15       0.00
      9.40       0.02       0.15
      9.45      -0.19       0.68
      9.22      -0.15       0.64
      9.02      -0.16       0.61
      8.69      -0.63      -0.11
      9.69      -1.15      -0.37
     10.20      -1.22      -0.30
     10.11      -1.00      -0.51
     10.31      -1.16      -0.26
     10.07      -0.94      -0.58
     10.97      -0.73      -0.65
     10.62      -1.02      -0.71
      9.31      -1.21       0.17
      9.58      -1.04       0.13
      9.69      -0.56      -0.49
      9.93      -0.66      -0.60
     10.19      -0.68      -0.79
      9.78      -0.54      -0.81
      9.46      -0.31      -0.40
     10.18      -0.17      -0.13
      9.87       0.16      -0.21
      9.93       0.17       0.10
      9.74      -0.11       0.18
      9.60       0.16       0.42
      9.63       0.11       0.16
     10.04      -0.24       0.13
      9.08      -0.09      -0.01
      9.16       0.11       0.72
      9.24       0.20       0.52
      9.03       0.19       0.56
      9.06      -0.17       0.33
      8.98      -0.64      -0.22
      9.66      -1.06      -0.44
     10.14      -0.94      -0.78
     10.44      -0.87      -0.50
     10.34      -1.09      -0.35
     10.63      -0.94      -0.54
     10.54      -0.72      -0.67
      9.82      -1.12      -0.00
      9.34      -0.68      -0.02
      9.75      -0.65      -0.10
