# vtk DataFile Version 3.0
Low resolution, disturbed wind of YZ Slice at time = 30 seconds.
ASCII
DATASET STRUCTURED_POINTS
DIMENSIONS     1    26    12
ORIGIN    2008.00     635.00      15.00
SPACING      30.00      30.00      30.00
POINT_DATA             312
VECTORS DisYZ float
      6.14       0.83       0.03
      4.79       0.46       0.41
      6.07       0.20       0.07
      6.63       0.41      -0.12
      4.78       0.47      -0.11
      5.65       0.65      -0.42
      6.02       0.30       0.05
      6.50      -0.11      -0.36
      6.31       0.72      -0.62
      4.00      -0.52       0.69
      5.62       0.18      -0.15
      5.45       0.78      -0.52
      4.65       0.53      -0.42
      5.15       0.03      -0.18
      5.26      -0.28       0.35
      4.10       0.43       0.26
      4.74       0.46      -0.27
      4.86       0.05      -0.50
      5.79      -0.78      -0.28
      6.26       0.02      -0.10
      7.13      -0.30      -0.09
      4.96      -0.72       0.51
      6.91      -0.06      -0.02
      7.22      -0.24       0.35
      7.03       0.50      -0.06
      6.42       0.08      -0.00
      7.78       1.29       0.04
      6.01       0.74       0.62
      6.07       0.82      -0.76
      7.01       0.93       0.28
      6.56       0.60       0.01
      6.11       0.67       0.20
      6.96      -0.22       0.00
      7.17       0.13      -0.19
      6.90       0.50      -0.15
      6.83       0.25       0.20
      6.46       0.24       0.15
      6.37      -0.27      -0.08
      6.90      -0.01      -0.48
      6.44       0.02       0.55
      6.30      -0.01       0.05
      5.89       0.38      -0.07
      6.02      -0.03      -0.17
      6.02       0.21      -0.11
      6.90       0.11      -0.56
      6.87       0.16      -0.19
      6.49       0.10       0.02
      7.56      -0.36       0.09
      7.67      -0.78      -0.32
      7.23      -0.30       0.32
      8.18      -0.04       0.07
      7.89       0.35      -0.01
      7.51       0.73       0.36
      6.14       0.51       0.86
      7.07       0.56       0.17
      7.49       0.59      -0.19
      7.18       0.61      -0.52
      6.61       0.42       0.50
      7.43       0.35      -0.04
      7.43       0.26      -0.32
      7.24       0.11      -0.16
      7.28       0.04       0.10
      6.73       0.43       0.31
      6.62      -0.10       1.00
      7.49      -0.10      -0.08
      7.10      -0.15      -0.39
      6.68       0.17       0.25
      6.32       0.15       0.03
      6.89       0.39      -0.26
      7.51       0.99      -0.26
      7.85       0.54      -0.19
      7.28       0.32       0.25
      6.83       0.51       0.22
      7.82       0.37       0.21
      8.49      -0.11      -0.11
      8.13      -0.28       0.03
      8.56      -0.37      -0.41
      8.08      -0.10      -0.12
      7.91      -0.11       0.23
      7.29       0.03       1.04
      8.13      -0.00      -0.05
      8.45       0.31      -0.20
      7.63       0.26      -0.61
      6.71       0.36       0.54
      6.84       0.41       0.18
      7.69       0.33       0.22
      7.99      -0.11       0.18
      8.49      -0.13      -0.16
      7.97       0.17       0.10
      7.47       0.41       0.76
      8.10       0.21      -0.25
      8.43       0.52      -0.42
      7.15       0.07       0.21
      7.39      -0.14       0.00
      7.66       0.43       0.01
      7.91       0.41      -0.39
      8.57      -0.40      -0.15
      8.88      -0.28      -0.27
      8.19       0.38      -0.16
      7.95       0.39      -0.03
      8.76      -0.12      -0.01
      8.50       0.06      -0.08
      8.51       0.10      -0.16
      8.23       0.17      -0.24
      7.70      -0.14       0.97
      7.25      -0.38       0.99
      8.30      -0.15      -0.53
      8.28      -0.32      -0.31
      7.56       0.19      -0.25
      7.44       0.01      -0.10
      8.02       0.21       0.24
      7.71      -0.20       0.49
      8.30      -0.02       0.08
      8.83       0.00      -0.16
      8.33       0.11       0.46
      8.47       0.32       0.34
      8.73      -0.06      -0.04
      8.61       0.01      -0.45
      8.32      -0.16      -0.03
      8.40       0.42       0.25
      8.33       0.50       0.25
      8.01      -0.08       0.27
      8.26      -0.40       0.03
      7.63      -0.13       0.32
      8.51       0.14      -0.15
      8.68       0.14      -0.14
      9.04       0.50      -0.14
      8.81       0.39      -0.35
      9.28       0.56      -0.33
      9.25       0.26      -0.01
      7.36      -0.18       0.71
      8.50      -0.18      -0.07
      8.75      -0.46      -0.32
      8.29      -0.50      -0.16
      8.50      -0.08      -0.04
      7.79      -0.07      -0.23
      8.07       0.28       0.22
      7.48       0.77       0.77
      7.52       0.60       0.62
      8.97      -0.18       0.08
      8.78      -0.09       0.24
      9.02      -0.30       0.18
      9.37      -0.16      -0.15
      8.73      -0.30      -0.01
      9.09       0.09      -0.36
      9.11      -0.16       0.32
      8.02       0.39       0.72
      9.11       0.51       0.33
      8.27       0.41       0.33
      8.51       0.23      -0.07
      9.04      -0.09      -0.52
      9.03      -0.28      -0.28
      9.17       0.11      -0.23
      9.11       0.14      -0.52
      9.21       0.06      -0.04
      9.03      -0.12       0.10
      8.11      -0.62       0.61
      8.62      -0.77       0.08
      9.51      -0.54      -0.54
      8.74      -0.53      -0.41
      8.41      -0.72      -0.02
      9.19      -0.04      -0.18
      8.63      -0.15       0.10
      8.28       0.19       0.46
      8.94      -0.11       0.26
      8.98      -0.24       0.28
      9.10      -0.15       0.06
      9.31      -0.16       0.57
     10.16      -0.84      -0.24
      9.62      -0.53      -0.10
     10.45      -0.51      -0.08
      9.70      -0.20       0.34
      9.48       0.19       0.68
      8.81       0.21       0.63
      8.37       0.20       0.13
      9.03       0.00       0.03
      9.11      -0.24      -0.42
      9.16      -0.28      -0.12
      9.17      -0.68       0.04
      9.65      -0.64      -0.41
      9.76      -0.81      -0.04
      9.68      -0.83      -0.01
      8.51      -1.03       0.21
      8.29      -0.65      -0.28
      9.60      -0.74      -0.39
      9.25      -0.80      -0.25
      8.36      -0.25       0.29
      8.91      -0.26      -0.50
      9.22      -0.31       0.26
      9.10      -0.49       0.18
      8.84      -0.73       0.19
      9.10      -0.46       0.32
      9.84      -0.57       0.03
      9.09      -0.97       0.51
      9.74      -0.64      -0.35
      9.73      -0.52      -0.26
      9.89      -0.40      -0.57
      9.43      -0.33      -0.01
      9.41      -0.12       0.66
      8.77      -0.42       0.46
      8.91      -0.60       0.29
      9.26      -0.49       0.23
      8.85      -0.73      -0.00
      9.45      -0.93      -0.12
      9.74      -0.96      -0.21
      9.46      -0.79       0.06
      9.37      -0.77       0.21
      9.25      -0.99      -0.48
      9.02      -0.51      -0.06
      9.33      -0.85       0.14
      9.43      -0.77      -0.30
      9.29      -0.82      -0.36
      9.10      -0.42       0.05
      9.22      -0.54      -0.46
      9.01      -0.30       0.20
      8.82      -0.23       0.25
      8.99      -0.18       0.33
      9.41      -0.58       0.23
      9.52      -0.55       0.48
      9.18      -1.17       0.35
      9.98      -0.75      -0.52
      9.69      -0.99      -0.47
      9.37      -1.01      -0.43
      8.77      -0.91      -0.17
      8.95      -0.83       0.39
      8.94      -0.75       0.55
      8.93      -0.75       0.34
      8.96      -0.77       0.19
      9.05      -0.49       0.33
      9.51      -0.93       0.17
      9.29      -1.11      -0.06
      9.21      -1.68      -0.65
      9.23      -1.61      -0.23
      9.84      -1.23      -0.77
      8.57      -0.31       0.06
      8.87       0.01      -0.19
      9.26      -0.23      -0.25
      9.37      -0.15      -0.22
      9.21      -0.50      -0.37
      9.08      -0.57      -0.27
      8.28      -0.58       0.20
      8.95      -0.69       0.21
      9.42      -1.10       0.52
      9.61      -1.21       0.40
      9.60      -1.01       0.32
      9.78      -0.42      -0.13
     10.23      -0.40      -0.20
     10.18      -0.76       0.09
      9.74      -1.20      -0.36
      9.14      -1.01      -0.01
      8.90      -0.86       0.59
      9.12      -0.99       0.54
      9.05      -0.84       0.35
      9.71      -0.54      -0.44
      9.29      -0.85       0.52
     10.10      -0.78      -0.28
      9.65      -0.82       0.10
      9.60      -1.05      -0.09
     10.39      -1.05      -0.45
     10.21      -1.10      -0.25
      9.28      -0.35       0.09
      9.56      -0.15       0.01
      9.47      -0.42      -0.21
      9.50      -0.74      -0.40
      9.08      -0.94      -0.11
      9.49      -0.74       0.10
      9.52      -1.04      -0.20
      9.33      -1.00       0.30
     10.04      -0.61      -0.25
     10.26      -0.46       0.11
      9.91      -0.59       0.07
     10.32      -0.59      -0.11
     10.30      -0.78      -0.07
     10.40      -0.62       0.00
     10.30      -0.58      -0.17
      9.21      -1.17       0.06
      9.56      -1.24       0.13
      9.24      -0.85       0.54
      9.40      -0.58       0.21
      9.70      -0.66      -0.18
      9.67      -0.83       0.32
      9.97      -0.88      -0.35
      9.94      -1.43       0.37
     10.07      -1.04      -0.06
     10.09      -1.16       0.31
     11.22      -0.86       0.19
      9.51      -0.45       0.20
      9.53      -0.52      -0.00
      9.44      -0.80      -0.06
      9.45      -0.90      -0.24
     10.02      -0.77      -0.37
      9.46      -0.46      -0.09
      9.21      -0.31       0.11
      9.35      -0.33       0.12
     10.11      -0.72      -0.07
     10.24      -0.86      -0.04
     10.22      -0.81       0.10
     10.32      -1.03      -0.12
      9.96      -0.90      -0.22
     10.12      -1.00       0.03
     10.60      -0.84       0.14
     10.07      -0.76       0.29
      9.32      -0.64       0.11
      9.40      -0.43       0.29
      9.31      -0.51       0.11
      9.50      -0.47       0.05
      9.57      -0.40       0.00
     10.05      -0.85       0.12
     10.03      -1.09       0.08
      9.76      -1.33       0.03
      9.69      -1.35       0.37
     10.01      -1.16       0.14
