# vtk DataFile Version 3.0
Low resolution, disturbed wind of YZ Slice at time = 33 seconds.
ASCII
DATASET STRUCTURED_POINTS
DIMENSIONS     1    26    12
ORIGIN    1504.00     635.00      15.00
SPACING      30.00      30.00      30.00
POINT_DATA             312
VECTORS DisYZ float
      8.54       1.87       0.06
      6.14      -0.07       0.27
      6.38       1.62       0.41
      4.56       0.75       0.46
      5.62       0.33       0.12
      5.54       0.87      -0.01
      4.23       0.97      -0.22
      7.04       0.64       0.04
      4.98      -0.48       0.60
      4.67       1.03      -0.46
      5.76       0.06       0.06
      2.98      -0.16       0.62
      4.24       0.56      -0.27
      3.59       0.52       0.74
      3.45       0.66      -0.41
      4.74       0.46      -0.15
      4.94       0.34       0.33
      5.37       0.91      -0.74
      4.82       0.03       0.40
      5.75      -0.29       0.09
      3.47      -0.30       0.97
      6.69      -0.54      -0.28
      5.93       0.35      -0.30
      6.47       0.22      -0.04
      5.45      -0.23       0.35
      7.67      -0.34      -0.27
      7.84       0.04      -0.63
      6.62       0.11       0.43
      7.82       0.72       0.64
      5.84       1.01       0.30
      6.03       0.69      -0.12
      7.02       0.56      -0.33
      6.76      -0.39       0.32
      6.44      -0.54       0.38
      7.07       0.45       0.01
      4.77      -0.01       0.68
      6.57       0.68       0.62
      6.39       1.61      -0.08
      6.53       0.77       0.11
      5.42       0.05      -0.08
      6.94      -0.33      -1.14
      5.98       0.04      -1.01
      6.82      -0.17      -0.17
      6.42       0.77      -0.26
      6.75       0.50       1.08
      6.57       0.38       0.56
      6.28      -0.26       0.40
      7.13      -0.15       0.10
      7.49      -0.32      -0.05
      7.90       0.17      -0.30
      6.89       0.41      -0.09
      7.52       0.44      -0.36
      8.51       0.13      -0.13
      8.61       0.56       0.13
      9.00       1.04       0.59
      7.19       0.74      -0.01
      7.02       0.76       0.47
      7.16      -0.11       0.43
      7.71       0.31      -0.20
      7.64       0.29      -0.00
      7.93      -0.08      -0.12
      7.49      -0.50      -0.02
      7.08       0.14       1.16
      6.76       1.00       0.32
      6.25       0.14       0.49
      6.98      -0.51       0.22
      7.74       0.12      -1.03
      7.52       0.12      -0.87
      6.65       0.30      -0.40
      7.41      -0.95       0.18
      7.64      -0.52       0.10
      6.63       0.18       0.48
      8.23      -0.93       0.43
      9.24      -0.75      -0.14
      7.67      -0.71       0.18
      8.04      -0.97       0.41
      8.91      -0.74      -0.07
      8.31      -0.80       0.49
      8.48       0.35      -0.51
      8.42       0.06       0.01
      8.62       0.03       0.62
      7.66       0.51       0.99
      7.37       0.28       0.15
      7.43       0.65       0.12
      7.96       0.11      -0.37
      7.95       0.03      -0.03
      8.01      -0.80       0.26
      8.48      -0.96      -0.25
      7.18      -0.24       0.64
      7.13       0.35       0.50
      6.90       0.46       0.38
      8.13       0.87      -0.36
      8.29       0.62      -0.15
      7.70      -0.23      -0.35
      6.62       0.58       0.09
      7.89      -0.36       0.10
      8.18      -0.58       0.30
      8.50      -0.48      -0.11
      8.49      -0.51       0.14
      8.93      -0.70       0.09
      8.90      -0.93      -0.01
      7.87      -0.47      -0.25
      8.53      -0.66      -0.16
      8.21      -0.11       0.09
      8.42      -0.90       0.71
      8.73      -0.43      -0.06
      8.61      -0.79      -0.22
      8.80      -0.29      -0.13
      9.12      -0.01       0.10
      7.86      -0.33       0.45
      7.53      -0.99       0.15
      7.81      -0.44       0.19
      7.50      -0.70       0.78
      8.41      -0.57      -1.26
      8.06      -0.56      -0.20
      7.83       0.64      -0.06
      8.25       0.33       0.21
      8.26       0.17      -0.07
      8.38       0.33      -0.16
      8.43       0.09      -0.24
      8.36      -0.09      -0.32
      8.04       0.37       1.39
      7.76       0.21       0.24
      8.53      -0.28       0.02
      8.03       0.11      -0.51
      9.07      -0.25       0.01
      9.49      -0.37      -0.05
      9.29      -0.17      -0.36
      9.12       0.21      -0.29
      9.19       0.15      -0.10
      8.54      -0.06       0.53
      8.65      -0.15       0.25
      8.98      -0.49       0.08
      9.30      -0.89      -0.53
      8.36      -0.81      -0.16
      9.01      -0.23      -0.28
      9.09       0.30      -0.18
      8.71      -0.15       0.24
      8.08       0.07      -0.14
      8.62      -0.23      -0.15
      9.18      -0.33      -0.33
      9.13      -0.23      -0.03
      8.86       0.09       0.25
      8.47       0.51       0.13
      8.58       0.38       0.25
      8.63      -0.11      -0.06
      8.29       0.08       0.10
      8.00      -0.35       0.14
      7.60      -0.34       0.56
      8.23      -0.60       0.06
      8.97      -0.26      -0.23
      8.91       0.09       0.04
      9.11       0.21       0.45
      9.37       0.18      -0.49
      9.01      -0.37      -0.55
      9.17      -0.64      -0.29
      8.68      -0.49       0.39
      8.75      -0.48       0.08
      9.03      -0.13      -0.63
      9.33      -0.06      -0.21
      9.01      -0.31      -0.23
      9.43       0.14      -0.43
      8.70      -0.29      -0.22
      8.93      -0.41       0.41
      9.02      -0.01       0.10
      9.82      -0.47      -0.12
      8.93      -0.50      -0.51
      9.21      -0.57      -0.07
      8.77      -0.28       0.19
      8.76      -0.18       0.28
      8.88      -0.48       0.11
      8.05      -0.15      -0.27
      8.31      -0.32       0.82
      8.31      -0.55       0.42
      7.77      -0.77       1.09
      7.72      -0.21       0.32
      8.86       0.01       0.19
      8.56       0.49       0.51
      8.71       0.32       0.02
      8.98      -0.61      -0.14
      9.08      -1.07      -0.27
      9.22      -0.83      -0.57
      8.49      -0.37       0.39
      8.95      -0.12       0.15
      8.66       0.18      -0.20
      9.18      -0.39      -0.51
      8.41      -0.49       0.38
      9.60      -0.64      -0.10
      9.31      -0.68      -0.24
      9.58      -0.67      -0.52
      9.85      -0.64      -0.39
      9.83      -0.51      -0.27
      9.80      -0.39      -0.29
      9.03      -0.82      -0.10
      8.70      -0.80      -0.21
      9.21      -0.62       0.24
      8.33      -0.45      -0.50
      8.32      -0.78       0.24
      8.31      -0.51       0.13
      8.47      -0.12       0.76
      7.77      -0.43       0.51
      9.86      -0.88      -0.20
      9.20       0.11       0.42
      9.96      -0.31       0.16
      8.78       0.02       0.42
      9.19      -0.23       0.20
      9.67      -0.04      -0.47
     10.02       0.14      -0.82
      9.05       0.08       0.25
      8.59       0.12       0.27
      8.80       0.22      -0.18
      9.33       0.05       0.28
      9.34      -0.44       0.37
      9.13      -0.51       0.31
      9.07      -0.51       0.14
     10.07      -0.67      -0.71
     10.08      -0.65       0.02
      9.66      -0.34      -0.38
      9.26      -0.44      -0.18
      9.01      -1.06      -0.12
      9.15      -1.10       0.07
      8.78      -1.31      -0.10
      8.37      -1.10       0.41
      8.87      -1.04       0.04
      9.05      -1.28       0.27
      9.04      -1.08       0.37
      8.31      -0.76       0.96
     10.83      -0.36      -0.30
     10.35      -0.13      -0.06
      9.02      -0.06      -0.02
      9.00       0.20       0.35
      9.38       0.18      -0.10
      9.88      -0.49      -0.41
      9.53      -0.51      -0.71
      8.76      -0.28       0.25
      9.45      -0.95      -0.12
      9.63      -0.80       0.07
      9.29      -0.16       0.54
      9.13      -0.36       0.34
      9.58      -0.72      -0.09
      9.35      -0.54       0.18
      9.56      -0.45      -0.36
      9.43      -0.43      -0.18
      9.61      -1.07      -0.19
      8.98      -1.40       0.11
      9.83      -1.18       0.00
     10.64      -1.00      -0.13
      9.66      -1.09       0.10
      9.55      -0.81       0.40
      9.47      -0.51       0.25
      9.16      -0.71       0.13
      9.33      -0.72       0.02
      9.70      -0.34      -0.02
     10.28      -0.38      -0.42
      9.27       0.11       0.31
      9.06       0.00       0.41
      9.25      -0.32       0.16
     10.03      -0.54      -0.35
     10.61      -1.10      -0.02
     10.29      -1.12      -0.32
      9.05      -0.01       0.76
      9.27      -0.94      -0.18
      9.64      -0.76      -0.53
      9.49      -0.54       0.46
      9.07      -0.63       0.67
      9.14      -0.34      -0.03
      9.95      -0.81      -0.06
      9.85      -0.75       0.07
     10.23      -1.02      -0.11
      9.86      -1.01      -0.23
      9.46      -1.23      -0.08
      9.43      -1.18       0.42
      9.84      -1.12       0.11
      9.47      -0.98       0.40
     10.10      -0.79      -0.01
      9.79      -0.61       0.21
      9.75      -0.36      -0.07
      9.82      -0.41       0.13
      9.63      -0.68      -0.27
      7.74      -0.31       0.80
      8.84      -0.24       0.35
      9.04      -0.41       0.28
      9.76      -0.27       0.00
      9.88      -0.95       0.26
     10.10      -0.58      -0.69
      9.81      -0.62      -0.24
      9.74      -0.18       0.51
      9.30       0.03       0.61
      9.64      -0.30      -0.15
      9.46      -0.46       0.13
      9.68      -0.58       0.51
      9.00      -0.61       0.30
      9.29      -0.39       0.03
      9.93      -0.37       0.21
      9.66      -0.45       0.40
      9.90      -0.75      -0.15
      9.81      -0.96       0.03
      9.72      -1.12       0.05
      9.80      -0.98       0.16
      9.63      -1.00       0.02
      9.58      -0.75      -0.10
      9.68      -0.74       0.04
      9.71      -0.77      -0.36
      9.60      -0.82       0.15
      9.64      -0.66       0.20
      9.44      -0.59       0.56
      9.58      -0.36       0.48
      9.93      -0.80       0.11
     10.06      -1.01       0.02
      9.77      -1.05       0.15
     10.55      -1.41      -0.02
     10.79      -1.32      -0.45
