
Predictions were generated on 15-Mar-2021 at 15:57:03 using FAST.Farm (v0.01.02a-jmj, 04-Jul-2017), compiled as a 64-bit application using double precision and with OpenMP
 linked with  NWTC Subroutine Library

Description from the FAST.Farm input file: Sample FAST.Farm input file

Time                	RtAxsXT1            	RtAxsYT1            	RtAxsZT1            	RtPosXT1            	RtPosYT1            	RtPosZT1            	YawErrT1            	TIAmbT1             	CtT1N01             	CtT1N02             	CtT1N03             	CtT1N04             	CtT1N05             	CtT1N06             	CtT1N07             	CtT1N08             	CtT1N09             	CtT1N10             	CtT1N11             	CtT1N12             	CtT1N13             	CtT1N14             	CtT1N15             	CtT1N16             	CtT1N17             	CtT1N18             	CtT1N19             	CtT1N20             	WkAxsXT1D1          	WkAxsXT1D2          	WkAxsXT1D3          	WkAxsXT1D4          	WkAxsXT1D5          	WkAxsXT1D6          	WkAxsXT1D7          	WkAxsYT1D1          	WkAxsYT1D2          	WkAxsYT1D3          	WkAxsYT1D4          	WkAxsYT1D5          	WkAxsYT1D6          	WkAxsYT1D7          	WkAxsZT1D1          	WkAxsZT1D2          	WkAxsZT1D3          	WkAxsZT1D4          	WkAxsZT1D5          	WkAxsZT1D6          	WkAxsZT1D7          	WkPosXT1D1          	WkPosXT1D2          	WkPosXT1D3          	WkPosXT1D4          	WkPosXT1D5          	WkPosXT1D6          	WkPosXT1D7          	WkPosYT1D1          	WkPosYT1D2          	WkPosYT1D3          	WkPosYT1D4          	WkPosYT1D5          	WkPosYT1D6          	WkPosYT1D7          	WkPosZT1D1          	WkPosZT1D2          	WkPosZT1D3          	WkPosZT1D4          	WkPosZT1D5          	WkPosZT1D6          	WkPosZT1D7          	WkDfVxT1N01D1       	WkDfVxT1N02D1       	WkDfVxT1N03D1       	WkDfVxT1N04D1       	WkDfVxT1N05D1       	WkDfVxT1N06D1       	WkDfVxT1N07D1       	WkDfVxT1N08D1       	WkDfVxT1N09D1       	WkDfVxT1N10D1       	WkDfVxT1N11D1       	WkDfVxT1N12D1       	WkDfVxT1N13D1       	WkDfVxT1N14D1       	WkDfVxT1N15D1       	WkDfVxT1N16D1       	WkDfVxT1N17D1       	WkDfVxT1N18D1       	WkDfVxT1N19D1       	WkDfVxT1N20D1       	WkDfVxT1N01D2       	WkDfVxT1N02D2       	WkDfVxT1N03D2       	WkDfVxT1N04D2       	WkDfVxT1N05D2       	WkDfVxT1N06D2       	WkDfVxT1N07D2       	WkDfVxT1N08D2       	WkDfVxT1N09D2       	WkDfVxT1N10D2       	WkDfVxT1N11D2       	WkDfVxT1N12D2       	WkDfVxT1N13D2       	WkDfVxT1N14D2       	WkDfVxT1N15D2       	WkDfVxT1N16D2       	WkDfVxT1N17D2       	WkDfVxT1N18D2       	WkDfVxT1N19D2       	WkDfVxT1N20D2       	WkDfVxT1N01D3       	WkDfVxT1N02D3       	WkDfVxT1N03D3       	WkDfVxT1N04D3       	WkDfVxT1N05D3       	WkDfVxT1N06D3       	WkDfVxT1N07D3       	WkDfVxT1N08D3       	WkDfVxT1N09D3       	WkDfVxT1N10D3       	WkDfVxT1N11D3       	WkDfVxT1N12D3       	WkDfVxT1N13D3       	WkDfVxT1N14D3       	WkDfVxT1N15D3       	WkDfVxT1N16D3       	WkDfVxT1N17D3       	WkDfVxT1N18D3       	WkDfVxT1N19D3       	WkDfVxT1N20D3       	WkDfVxT1N01D4       	WkDfVxT1N02D4       	WkDfVxT1N03D4       	WkDfVxT1N04D4       	WkDfVxT1N05D4       	WkDfVxT1N06D4       	WkDfVxT1N07D4       	WkDfVxT1N08D4       	WkDfVxT1N09D4       	WkDfVxT1N10D4       	WkDfVxT1N11D4       	WkDfVxT1N12D4       	WkDfVxT1N13D4       	WkDfVxT1N14D4       	WkDfVxT1N15D4       	WkDfVxT1N16D4       	WkDfVxT1N17D4       	WkDfVxT1N18D4       	WkDfVxT1N19D4       	WkDfVxT1N20D4       	WkDfVxT1N01D5       	WkDfVxT1N02D5       	WkDfVxT1N03D5       	WkDfVxT1N04D5       	WkDfVxT1N05D5       	WkDfVxT1N06D5       	WkDfVxT1N07D5       	WkDfVxT1N08D5       	WkDfVxT1N09D5       	WkDfVxT1N10D5       	WkDfVxT1N11D5       	WkDfVxT1N12D5       	WkDfVxT1N13D5       	WkDfVxT1N14D5       	WkDfVxT1N15D5       	WkDfVxT1N16D5       	WkDfVxT1N17D5       	WkDfVxT1N18D5       	WkDfVxT1N19D5       	WkDfVxT1N20D5       	WkDfVxT1N01D6       	WkDfVxT1N02D6       	WkDfVxT1N03D6       	WkDfVxT1N04D6       	WkDfVxT1N05D6       	WkDfVxT1N06D6       	WkDfVxT1N07D6       	WkDfVxT1N08D6       	WkDfVxT1N09D6       	WkDfVxT1N10D6       	WkDfVxT1N11D6       	WkDfVxT1N12D6       	WkDfVxT1N13D6       	WkDfVxT1N14D6       	WkDfVxT1N15D6       	WkDfVxT1N16D6       	WkDfVxT1N17D6       	WkDfVxT1N18D6       	WkDfVxT1N19D6       	WkDfVxT1N20D6       	WkDfVxT1N01D7       	WkDfVxT1N02D7       	WkDfVxT1N03D7       	WkDfVxT1N04D7       	WkDfVxT1N05D7       	WkDfVxT1N06D7       	WkDfVxT1N07D7       	WkDfVxT1N08D7       	WkDfVxT1N09D7       	WkDfVxT1N10D7       	WkDfVxT1N11D7       	WkDfVxT1N12D7       	WkDfVxT1N13D7       	WkDfVxT1N14D7       	WkDfVxT1N15D7       	WkDfVxT1N16D7       	WkDfVxT1N17D7       	WkDfVxT1N18D7       	WkDfVxT1N19D7       	WkDfVxT1N20D7       	WkDfVrT1N01D1       	WkDfVrT1N02D1       	WkDfVrT1N03D1       	WkDfVrT1N04D1       	WkDfVrT1N05D1       	WkDfVrT1N06D1       	WkDfVrT1N07D1       	WkDfVrT1N08D1       	WkDfVrT1N09D1       	WkDfVrT1N10D1       	WkDfVrT1N11D1       	WkDfVrT1N12D1       	WkDfVrT1N13D1       	WkDfVrT1N14D1       	WkDfVrT1N15D1       	WkDfVrT1N16D1       	WkDfVrT1N17D1       	WkDfVrT1N18D1       	WkDfVrT1N19D1       	WkDfVrT1N20D1       	WkDfVrT1N01D2       	WkDfVrT1N02D2       	WkDfVrT1N03D2       	WkDfVrT1N04D2       	WkDfVrT1N05D2       	WkDfVrT1N06D2       	WkDfVrT1N07D2       	WkDfVrT1N08D2       	WkDfVrT1N09D2       	WkDfVrT1N10D2       	WkDfVrT1N11D2       	WkDfVrT1N12D2       	WkDfVrT1N13D2       	WkDfVrT1N14D2       	WkDfVrT1N15D2       	WkDfVrT1N16D2       	WkDfVrT1N17D2       	WkDfVrT1N18D2       	WkDfVrT1N19D2       	WkDfVrT1N20D2       	WkDfVrT1N01D3       	WkDfVrT1N02D3       	WkDfVrT1N03D3       	WkDfVrT1N04D3       	WkDfVrT1N05D3       	WkDfVrT1N06D3       	WkDfVrT1N07D3       	WkDfVrT1N08D3       	WkDfVrT1N09D3       	WkDfVrT1N10D3       	WkDfVrT1N11D3       	WkDfVrT1N12D3       	WkDfVrT1N13D3       	WkDfVrT1N14D3       	WkDfVrT1N15D3       	WkDfVrT1N16D3       	WkDfVrT1N17D3       	WkDfVrT1N18D3       	WkDfVrT1N19D3       	WkDfVrT1N20D3       	WkDfVrT1N01D4       	WkDfVrT1N02D4       	WkDfVrT1N03D4       	WkDfVrT1N04D4       	WkDfVrT1N05D4       	WkDfVrT1N06D4       	WkDfVrT1N07D4       	WkDfVrT1N08D4       	WkDfVrT1N09D4       	WkDfVrT1N10D4       	WkDfVrT1N11D4       	WkDfVrT1N12D4       	WkDfVrT1N13D4       	WkDfVrT1N14D4       	WkDfVrT1N15D4       	WkDfVrT1N16D4       	WkDfVrT1N17D4       	WkDfVrT1N18D4       	WkDfVrT1N19D4       	WkDfVrT1N20D4       	WkDfVrT1N01D5       	WkDfVrT1N02D5       	WkDfVrT1N03D5       	WkDfVrT1N04D5       	WkDfVrT1N05D5       	WkDfVrT1N06D5       	WkDfVrT1N07D5       	WkDfVrT1N08D5       	WkDfVrT1N09D5       	WkDfVrT1N10D5       	WkDfVrT1N11D5       	WkDfVrT1N12D5       	WkDfVrT1N13D5       	WkDfVrT1N14D5       	WkDfVrT1N15D5       	WkDfVrT1N16D5       	WkDfVrT1N17D5       	WkDfVrT1N18D5       	WkDfVrT1N19D5       	WkDfVrT1N20D5       	WkDfVrT1N01D6       	WkDfVrT1N02D6       	WkDfVrT1N03D6       	WkDfVrT1N04D6       	WkDfVrT1N05D6       	WkDfVrT1N06D6       	WkDfVrT1N07D6       	WkDfVrT1N08D6       	WkDfVrT1N09D6       	WkDfVrT1N10D6       	WkDfVrT1N11D6       	WkDfVrT1N12D6       	WkDfVrT1N13D6       	WkDfVrT1N14D6       	WkDfVrT1N15D6       	WkDfVrT1N16D6       	WkDfVrT1N17D6       	WkDfVrT1N18D6       	WkDfVrT1N19D6       	WkDfVrT1N20D6       	WkDfVrT1N01D7       	WkDfVrT1N02D7       	WkDfVrT1N03D7       	WkDfVrT1N04D7       	WkDfVrT1N05D7       	WkDfVrT1N06D7       	WkDfVrT1N07D7       	WkDfVrT1N08D7       	WkDfVrT1N09D7       	WkDfVrT1N10D7       	WkDfVrT1N11D7       	WkDfVrT1N12D7       	WkDfVrT1N13D7       	WkDfVrT1N14D7       	WkDfVrT1N15D7       	WkDfVrT1N16D7       	WkDfVrT1N17D7       	WkDfVrT1N18D7       	WkDfVrT1N19D7       	WkDfVrT1N20D7       
(s)                 	(-)          	(-)          	(-)          	(m)          	(m)          	(m)          	(deg)        	(percent)    	(-)          	(-)          	(-)          	(-)          	(-)          	(-)          	(-)          	(-)          	(-)          	(-)          	(-)          	(-)          	(-)          	(-)          	(-)          	(-)          	(-)          	(-)          	(-)          	(-)          	(-)          	(-)          	(-)          	(-)          	(-)          	(-)          	(-)          	(-)          	(-)          	(-)          	(-)          	(-)          	(-)          	(-)          	(-)          	(-)          	(-)          	(-)          	(-)          	(-)          	(-)          	(m)          	(m)          	(m)          	(m)          	(m)          	(m)          	(m)          	(m)          	(m)          	(m)          	(m)          	(m)          	(m)          	(m)          	(m)          	(m)          	(m)          	(m)          	(m)          	(m)          	(m)          	(m/s)        	(m/s)        	(m/s)        	(m/s)        	(m/s)        	(m/s)        	(m/s)        	(m/s)        	(m/s)        	(m/s)        	(m/s)        	(m/s)        	(m/s)        	(m/s)        	(m/s)        	(m/s)        	(m/s)        	(m/s)        	(m/s)        	(m/s)        	(m/s)        	(m/s)        	(m/s)        	(m/s)        	(m/s)        	(m/s)        	(m/s)        	(m/s)        	(m/s)        	(m/s)        	(m/s)        	(m/s)        	(m/s)        	(m/s)        	(m/s)        	(m/s)        	(m/s)        	(m/s)        	(m/s)        	(m/s)        	(m/s)        	(m/s)        	(m/s)        	(m/s)        	(m/s)        	(m/s)        	(m/s)        	(m/s)        	(m/s)        	(m/s)        	(m/s)        	(m/s)        	(m/s)        	(m/s)        	(m/s)        	(m/s)        	(m/s)        	(m/s)        	(m/s)        	(m/s)        	(m/s)        	(m/s)        	(m/s)        	(m/s)        	(m/s)        	(m/s)        	(m/s)        	(m/s)        	(m/s)        	(m/s)        	(m/s)        	(m/s)        	(m/s)        	(m/s)        	(m/s)        	(m/s)        	(m/s)        	(m/s)        	(m/s)        	(m/s)        	(m/s)        	(m/s)        	(m/s)        	(m/s)        	(m/s)        	(m/s)        	(m/s)        	(m/s)        	(m/s)        	(m/s)        	(m/s)        	(m/s)        	(m/s)        	(m/s)        	(m/s)        	(m/s)        	(m/s)        	(m/s)        	(m/s)        	(m/s)        	(m/s)        	(m/s)        	(m/s)        	(m/s)        	(m/s)        	(m/s)        	(m/s)        	(m/s)        	(m/s)        	(m/s)        	(m/s)        	(m/s)        	(m/s)        	(m/s)        	(m/s)        	(m/s)        	(m/s)        	(m/s)        	(m/s)        	(m/s)        	(m/s)        	(m/s)        	(m/s)        	(m/s)        	(m/s)        	(m/s)        	(m/s)        	(m/s)        	(m/s)        	(m/s)        	(m/s)        	(m/s)        	(m/s)        	(m/s)        	(m/s)        	(m/s)        	(m/s)        	(m/s)        	(m/s)        	(m/s)        	(m/s)        	(m/s)        	(m/s)        	(m/s)        	(m/s)        	(m/s)        	(m/s)        	(m/s)        	(m/s)        	(m/s)        	(m/s)        	(m/s)        	(m/s)        	(m/s)        	(m/s)        	(m/s)        	(m/s)        	(m/s)        	(m/s)        	(m/s)        	(m/s)        	(m/s)        	(m/s)        	(m/s)        	(m/s)        	(m/s)        	(m/s)        	(m/s)        	(m/s)        	(m/s)        	(m/s)        	(m/s)        	(m/s)        	(m/s)        	(m/s)        	(m/s)        	(m/s)        	(m/s)        	(m/s)        	(m/s)        	(m/s)        	(m/s)        	(m/s)        	(m/s)        	(m/s)        	(m/s)        	(m/s)        	(m/s)        	(m/s)        	(m/s)        	(m/s)        	(m/s)        	(m/s)        	(m/s)        	(m/s)        	(m/s)        	(m/s)        	(m/s)        	(m/s)        	(m/s)        	(m/s)        	(m/s)        	(m/s)        	(m/s)        	(m/s)        	(m/s)        	(m/s)        	(m/s)        	(m/s)        	(m/s)        	(m/s)        	(m/s)        	(m/s)        	(m/s)        	(m/s)        	(m/s)        	(m/s)        	(m/s)        	(m/s)        	(m/s)        	(m/s)        	(m/s)        	(m/s)        	(m/s)        	(m/s)        	(m/s)        	(m/s)        	(m/s)        	(m/s)        	(m/s)        	(m/s)        	(m/s)        	(m/s)        	(m/s)        	(m/s)        	(m/s)        	(m/s)        	(m/s)        	(m/s)        	(m/s)        	(m/s)        	(m/s)        	(m/s)        	(m/s)        	(m/s)        	(m/s)        	(m/s)        	(m/s)        	(m/s)        	(m/s)        	(m/s)        	(m/s)        	(m/s)        	(m/s)        	(m/s)        	(m/s)        	(m/s)        	(m/s)        	(m/s)        	(m/s)        	(m/s)        	(m/s)        	(m/s)        	(m/s)        	(m/s)        	(m/s)        	(m/s)        	(m/s)        	(m/s)        	(m/s)        	(m/s)        	(m/s)        	(m/s)        	(m/s)        	(m/s)        	(m/s)        	(m/s)        	(m/s)        	(m/s)        	(m/s)        
    0.0000	 9.962E-01	 0.000E+00	-8.716E-02	 9.950E+02	 1.000E+03	 9.000E+01	 2.623E-01	 9.530E+00	 0.000E+00	 6.647E-02	 4.647E-01	 8.469E-01	 7.269E-01	 7.430E-01	 8.272E-01	 8.542E-01	 8.468E-01	-6.255E-02	-3.892E-03	 9.777E-04	-2.466E-04	 6.239E-05	-1.584E-05	-1.029E-06	 1.732E-08	 7.652E-11	-8.968E-14	-5.617E-17	 0.000E+00	 0.000E+00	 0.000E+00	 0.000E+00	 0.000E+00	 0.000E+00	 0.000E+00	 0.000E+00	 0.000E+00	 0.000E+00	 0.000E+00	 0.000E+00	 0.000E+00	 0.000E+00	 0.000E+00	 0.000E+00	 0.000E+00	 0.000E+00	 0.000E+00	 0.000E+00	 0.000E+00	 0.000E+00	 0.000E+00	 0.000E+00	 0.000E+00	 0.000E+00	 0.000E+00	 0.000E+00	 0.000E+00	 0.000E+00	 0.000E+00	 0.000E+00	 0.000E+00	 0.000E+00	 0.000E+00	 0.000E+00	 0.000E+00	 0.000E+00	 0.000E+00	 0.000E+00	 0.000E+00	 0.000E+00	 0.000E+00	 0.000E+00	 0.000E+00	 0.000E+00	 0.000E+00	 0.000E+00	 0.000E+00	 0.000E+00	 0.000E+00	 0.000E+00	 0.000E+00	 0.000E+00	 0.000E+00	 0.000E+00	 0.000E+00	 0.000E+00	 0.000E+00	 0.000E+00	 0.000E+00	 0.000E+00	 0.000E+00	 0.000E+00	 0.000E+00	 0.000E+00	 0.000E+00	 0.000E+00	 0.000E+00	 0.000E+00	 0.000E+00	 0.000E+00	 0.000E+00	 0.000E+00	 0.000E+00	 0.000E+00	 0.000E+00	 0.000E+00	 0.000E+00	 0.000E+00	 0.000E+00	 0.000E+00	 0.000E+00	 0.000E+00	 0.000E+00	 0.000E+00	 0.000E+00	 0.000E+00	 0.000E+00	 0.000E+00	 0.000E+00	 0.000E+00	 0.000E+00	 0.000E+00	 0.000E+00	 0.000E+00	 0.000E+00	 0.000E+00	 0.000E+00	 0.000E+00	 0.000E+00	 0.000E+00	 0.000E+00	 0.000E+00	 0.000E+00	 0.000E+00	 0.000E+00	 0.000E+00	 0.000E+00	 0.000E+00	 0.000E+00	 0.000E+00	 0.000E+00	 0.000E+00	 0.000E+00	 0.000E+00	 0.000E+00	 0.000E+00	 0.000E+00	 0.000E+00	 0.000E+00	 0.000E+00	 0.000E+00	 0.000E+00	 0.000E+00	 0.000E+00	 0.000E+00	 0.000E+00	 0.000E+00	 0.000E+00	 0.000E+00	 0.000E+00	 0.000E+00	 0.000E+00	 0.000E+00	 0.000E+00	 0.000E+00	 0.000E+00	 0.000E+00	 0.000E+00	 0.000E+00	 0.000E+00	 0.000E+00	 0.000E+00	 0.000E+00	 0.000E+00	 0.000E+00	 0.000E+00	 0.000E+00	 0.000E+00	 0.000E+00	 0.000E+00	 0.000E+00	 0.000E+00	 0.000E+00	 0.000E+00	 0.000E+00	 0.000E+00	 0.000E+00	 0.000E+00	 0.000E+00	 0.000E+00	 0.000E+00	 0.000E+00	 0.000E+00	 0.000E+00	 0.000E+00	 0.000E+00	 0.000E+00	 0.000E+00	 0.000E+00	 0.000E+00	 0.000E+00	 0.000E+00	 0.000E+00	 0.000E+00	 0.000E+00	 0.000E+00	 0.000E+00	 0.000E+00	 0.000E+00	 0.000E+00	 0.000E+00	 0.000E+00	 0.000E+00	 0.000E+00	 0.000E+00	 0.000E+00	 0.000E+00	 0.000E+00	 0.000E+00	 0.000E+00	 0.000E+00	 0.000E+00	 0.000E+00	 0.000E+00	 0.000E+00	 0.000E+00	 0.000E+00	 0.000E+00	 0.000E+00	 0.000E+00	 0.000E+00	 0.000E+00	 0.000E+00	 0.000E+00	 0.000E+00	 0.000E+00	 0.000E+00	 0.000E+00	 0.000E+00	 0.000E+00	 0.000E+00	 0.000E+00	 0.000E+00	 0.000E+00	 0.000E+00	 0.000E+00	 0.000E+00	 0.000E+00	 0.000E+00	 0.000E+00	 0.000E+00	 0.000E+00	 0.000E+00	 0.000E+00	 0.000E+00	 0.000E+00	 0.000E+00	 0.000E+00	 0.000E+00	 0.000E+00	 0.000E+00	 0.000E+00	 0.000E+00	 0.000E+00	 0.000E+00	 0.000E+00	 0.000E+00	 0.000E+00	 0.000E+00	 0.000E+00	 0.000E+00	 0.000E+00	 0.000E+00	 0.000E+00	 0.000E+00	 0.000E+00	 0.000E+00	 0.000E+00	 0.000E+00	 0.000E+00	 0.000E+00	 0.000E+00	 0.000E+00	 0.000E+00	 0.000E+00	 0.000E+00	 0.000E+00	 0.000E+00	 0.000E+00	 0.000E+00	 0.000E+00	 0.000E+00	 0.000E+00	 0.000E+00	 0.000E+00	 0.000E+00	 0.000E+00	 0.000E+00	 0.000E+00	 0.000E+00	 0.000E+00	 0.000E+00	 0.000E+00	 0.000E+00	 0.000E+00	 0.000E+00	 0.000E+00	 0.000E+00	 0.000E+00	 0.000E+00	 0.000E+00	 0.000E+00	 0.000E+00	 0.000E+00	 0.000E+00	 0.000E+00	 0.000E+00	 0.000E+00	 0.000E+00	 0.000E+00	 0.000E+00	 0.000E+00	 0.000E+00	 0.000E+00	 0.000E+00	 0.000E+00	 0.000E+00	 0.000E+00	 0.000E+00	 0.000E+00	 0.000E+00	 0.000E+00	 0.000E+00	 0.000E+00	 0.000E+00	 0.000E+00	 0.000E+00	 0.000E+00	 0.000E+00	 0.000E+00	 0.000E+00	 0.000E+00	 0.000E+00	 0.000E+00	 0.000E+00	 0.000E+00	 0.000E+00	 0.000E+00	 0.000E+00	 0.000E+00
    3.0000	 9.961E-01	-3.336E-05	-8.856E-02	 9.951E+02	 1.000E+03	 9.001E+01	 1.139E+00	 9.429E+00	 0.000E+00	 6.801E-02	 4.496E-01	 8.315E-01	 7.217E-01	 7.401E-01	 8.334E-01	 8.267E-01	 8.136E-01	-6.022E-02	-3.747E-03	 9.413E-04	-2.374E-04	 6.007E-05	-1.525E-05	-9.906E-07	 1.667E-08	 7.367E-11	-8.634E-14	-5.408E-17	 0.000E+00	 0.000E+00	 0.000E+00	 0.000E+00	 0.000E+00	 0.000E+00	 0.000E+00	 0.000E+00	 0.000E+00	 0.000E+00	 0.000E+00	 0.000E+00	 0.000E+00	 0.000E+00	 0.000E+00	 0.000E+00	 0.000E+00	 0.000E+00	 0.000E+00	 0.000E+00	 0.000E+00	 0.000E+00	 0.000E+00	 0.000E+00	 0.000E+00	 0.000E+00	 0.000E+00	 0.000E+00	 0.000E+00	 0.000E+00	 0.000E+00	 0.000E+00	 0.000E+00	 0.000E+00	 0.000E+00	 0.000E+00	 0.000E+00	 0.000E+00	 0.000E+00	 0.000E+00	 0.000E+00	 0.000E+00	 0.000E+00	 0.000E+00	 0.000E+00	 0.000E+00	 0.000E+00	 0.000E+00	 0.000E+00	 0.000E+00	 0.000E+00	 0.000E+00	 0.000E+00	 0.000E+00	 0.000E+00	 0.000E+00	 0.000E+00	 0.000E+00	 0.000E+00	 0.000E+00	 0.000E+00	 0.000E+00	 0.000E+00	 0.000E+00	 0.000E+00	 0.000E+00	 0.000E+00	 0.000E+00	 0.000E+00	 0.000E+00	 0.000E+00	 0.000E+00	 0.000E+00	 0.000E+00	 0.000E+00	 0.000E+00	 0.000E+00	 0.000E+00	 0.000E+00	 0.000E+00	 0.000E+00	 0.000E+00	 0.000E+00	 0.000E+00	 0.000E+00	 0.000E+00	 0.000E+00	 0.000E+00	 0.000E+00	 0.000E+00	 0.000E+00	 0.000E+00	 0.000E+00	 0.000E+00	 0.000E+00	 0.000E+00	 0.000E+00	 0.000E+00	 0.000E+00	 0.000E+00	 0.000E+00	 0.000E+00	 0.000E+00	 0.000E+00	 0.000E+00	 0.000E+00	 0.000E+00	 0.000E+00	 0.000E+00	 0.000E+00	 0.000E+00	 0.000E+00	 0.000E+00	 0.000E+00	 0.000E+00	 0.000E+00	 0.000E+00	 0.000E+00	 0.000E+00	 0.000E+00	 0.000E+00	 0.000E+00	 0.000E+00	 0.000E+00	 0.000E+00	 0.000E+00	 0.000E+00	 0.000E+00	 0.000E+00	 0.000E+00	 0.000E+00	 0.000E+00	 0.000E+00	 0.000E+00	 0.000E+00	 0.000E+00	 0.000E+00	 0.000E+00	 0.000E+00	 0.000E+00	 0.000E+00	 0.000E+00	 0.000E+00	 0.000E+00	 0.000E+00	 0.000E+00	 0.000E+00	 0.000E+00	 0.000E+00	 0.000E+00	 0.000E+00	 0.000E+00	 0.000E+00	 0.000E+00	 0.000E+00	 0.000E+00	 0.000E+00	 0.000E+00	 0.000E+00	 0.000E+00	 0.000E+00	 0.000E+00	 0.000E+00	 0.000E+00	 0.000E+00	 0.000E+00	 0.000E+00	 0.000E+00	 0.000E+00	 0.000E+00	 0.000E+00	 0.000E+00	 0.000E+00	 0.000E+00	 0.000E+00	 0.000E+00	 0.000E+00	 0.000E+00	 0.000E+00	 0.000E+00	 0.000E+00	 0.000E+00	 0.000E+00	 0.000E+00	 0.000E+00	 0.000E+00	 0.000E+00	 0.000E+00	 0.000E+00	 0.000E+00	 0.000E+00	 0.000E+00	 0.000E+00	 0.000E+00	 0.000E+00	 0.000E+00	 0.000E+00	 0.000E+00	 0.000E+00	 0.000E+00	 0.000E+00	 0.000E+00	 0.000E+00	 0.000E+00	 0.000E+00	 0.000E+00	 0.000E+00	 0.000E+00	 0.000E+00	 0.000E+00	 0.000E+00	 0.000E+00	 0.000E+00	 0.000E+00	 0.000E+00	 0.000E+00	 0.000E+00	 0.000E+00	 0.000E+00	 0.000E+00	 0.000E+00	 0.000E+00	 0.000E+00	 0.000E+00	 0.000E+00	 0.000E+00	 0.000E+00	 0.000E+00	 0.000E+00	 0.000E+00	 0.000E+00	 0.000E+00	 0.000E+00	 0.000E+00	 0.000E+00	 0.000E+00	 0.000E+00	 0.000E+00	 0.000E+00	 0.000E+00	 0.000E+00	 0.000E+00	 0.000E+00	 0.000E+00	 0.000E+00	 0.000E+00	 0.000E+00	 0.000E+00	 0.000E+00	 0.000E+00	 0.000E+00	 0.000E+00	 0.000E+00	 0.000E+00	 0.000E+00	 0.000E+00	 0.000E+00	 0.000E+00	 0.000E+00	 0.000E+00	 0.000E+00	 0.000E+00	 0.000E+00	 0.000E+00	 0.000E+00	 0.000E+00	 0.000E+00	 0.000E+00	 0.000E+00	 0.000E+00	 0.000E+00	 0.000E+00	 0.000E+00	 0.000E+00	 0.000E+00	 0.000E+00	 0.000E+00	 0.000E+00	 0.000E+00	 0.000E+00	 0.000E+00	 0.000E+00	 0.000E+00	 0.000E+00	 0.000E+00	 0.000E+00	 0.000E+00	 0.000E+00	 0.000E+00	 0.000E+00	 0.000E+00	 0.000E+00	 0.000E+00	 0.000E+00	 0.000E+00	 0.000E+00	 0.000E+00	 0.000E+00	 0.000E+00	 0.000E+00	 0.000E+00	 0.000E+00	 0.000E+00	 0.000E+00	 0.000E+00	 0.000E+00	 0.000E+00	 0.000E+00	 0.000E+00	 0.000E+00	 0.000E+00	 0.000E+00	 0.000E+00	 0.000E+00	 0.000E+00	 0.000E+00	 0.000E+00	 0.000E+00	 0.000E+00	 0.000E+00	 0.000E+00	 0.000E+00
    6.0000	 9.960E-01	-7.305E-06	-8.932E-02	 9.951E+02	 1.000E+03	 9.001E+01	 1.734E+00	 9.358E+00	 0.000E+00	 6.386E-02	 4.613E-01	 8.508E-01	 7.365E-01	 7.501E-01	 8.227E-01	 8.248E-01	 8.344E-01	-6.199E-02	-3.857E-03	 9.690E-04	-2.444E-04	 6.184E-05	-1.570E-05	-1.020E-06	 1.717E-08	 7.584E-11	-8.888E-14	-5.567E-17	 0.000E+00	 0.000E+00	 0.000E+00	 0.000E+00	 0.000E+00	 0.000E+00	 0.000E+00	 0.000E+00	 0.000E+00	 0.000E+00	 0.000E+00	 0.000E+00	 0.000E+00	 0.000E+00	 0.000E+00	 0.000E+00	 0.000E+00	 0.000E+00	 0.000E+00	 0.000E+00	 0.000E+00	 0.000E+00	 0.000E+00	 0.000E+00	 0.000E+00	 0.000E+00	 0.000E+00	 0.000E+00	 0.000E+00	 0.000E+00	 0.000E+00	 0.000E+00	 0.000E+00	 0.000E+00	 0.000E+00	 0.000E+00	 0.000E+00	 0.000E+00	 0.000E+00	 0.000E+00	 0.000E+00	 0.000E+00	 0.000E+00	 0.000E+00	 0.000E+00	 0.000E+00	 0.000E+00	 0.000E+00	 0.000E+00	 0.000E+00	 0.000E+00	 0.000E+00	 0.000E+00	 0.000E+00	 0.000E+00	 0.000E+00	 0.000E+00	 0.000E+00	 0.000E+00	 0.000E+00	 0.000E+00	 0.000E+00	 0.000E+00	 0.000E+00	 0.000E+00	 0.000E+00	 0.000E+00	 0.000E+00	 0.000E+00	 0.000E+00	 0.000E+00	 0.000E+00	 0.000E+00	 0.000E+00	 0.000E+00	 0.000E+00	 0.000E+00	 0.000E+00	 0.000E+00	 0.000E+00	 0.000E+00	 0.000E+00	 0.000E+00	 0.000E+00	 0.000E+00	 0.000E+00	 0.000E+00	 0.000E+00	 0.000E+00	 0.000E+00	 0.000E+00	 0.000E+00	 0.000E+00	 0.000E+00	 0.000E+00	 0.000E+00	 0.000E+00	 0.000E+00	 0.000E+00	 0.000E+00	 0.000E+00	 0.000E+00	 0.000E+00	 0.000E+00	 0.000E+00	 0.000E+00	 0.000E+00	 0.000E+00	 0.000E+00	 0.000E+00	 0.000E+00	 0.000E+00	 0.000E+00	 0.000E+00	 0.000E+00	 0.000E+00	 0.000E+00	 0.000E+00	 0.000E+00	 0.000E+00	 0.000E+00	 0.000E+00	 0.000E+00	 0.000E+00	 0.000E+00	 0.000E+00	 0.000E+00	 0.000E+00	 0.000E+00	 0.000E+00	 0.000E+00	 0.000E+00	 0.000E+00	 0.000E+00	 0.000E+00	 0.000E+00	 0.000E+00	 0.000E+00	 0.000E+00	 0.000E+00	 0.000E+00	 0.000E+00	 0.000E+00	 0.000E+00	 0.000E+00	 0.000E+00	 0.000E+00	 0.000E+00	 0.000E+00	 0.000E+00	 0.000E+00	 0.000E+00	 0.000E+00	 0.000E+00	 0.000E+00	 0.000E+00	 0.000E+00	 0.000E+00	 0.000E+00	 0.000E+00	 0.000E+00	 0.000E+00	 0.000E+00	 0.000E+00	 0.000E+00	 0.000E+00	 0.000E+00	 0.000E+00	 0.000E+00	 0.000E+00	 0.000E+00	 0.000E+00	 0.000E+00	 0.000E+00	 0.000E+00	 0.000E+00	 0.000E+00	 0.000E+00	 0.000E+00	 0.000E+00	 0.000E+00	 0.000E+00	 0.000E+00	 0.000E+00	 0.000E+00	 0.000E+00	 0.000E+00	 0.000E+00	 0.000E+00	 0.000E+00	 0.000E+00	 0.000E+00	 0.000E+00	 0.000E+00	 0.000E+00	 0.000E+00	 0.000E+00	 0.000E+00	 0.000E+00	 0.000E+00	 0.000E+00	 0.000E+00	 0.000E+00	 0.000E+00	 0.000E+00	 0.000E+00	 0.000E+00	 0.000E+00	 0.000E+00	 0.000E+00	 0.000E+00	 0.000E+00	 0.000E+00	 0.000E+00	 0.000E+00	 0.000E+00	 0.000E+00	 0.000E+00	 0.000E+00	 0.000E+00	 0.000E+00	 0.000E+00	 0.000E+00	 0.000E+00	 0.000E+00	 0.000E+00	 0.000E+00	 0.000E+00	 0.000E+00	 0.000E+00	 0.000E+00	 0.000E+00	 0.000E+00	 0.000E+00	 0.000E+00	 0.000E+00	 0.000E+00	 0.000E+00	 0.000E+00	 0.000E+00	 0.000E+00	 0.000E+00	 0.000E+00	 0.000E+00	 0.000E+00	 0.000E+00	 0.000E+00	 0.000E+00	 0.000E+00	 0.000E+00	 0.000E+00	 0.000E+00	 0.000E+00	 0.000E+00	 0.000E+00	 0.000E+00	 0.000E+00	 0.000E+00	 0.000E+00	 0.000E+00	 0.000E+00	 0.000E+00	 0.000E+00	 0.000E+00	 0.000E+00	 0.000E+00	 0.000E+00	 0.000E+00	 0.000E+00	 0.000E+00	 0.000E+00	 0.000E+00	 0.000E+00	 0.000E+00	 0.000E+00	 0.000E+00	 0.000E+00	 0.000E+00	 0.000E+00	 0.000E+00	 0.000E+00	 0.000E+00	 0.000E+00	 0.000E+00	 0.000E+00	 0.000E+00	 0.000E+00	 0.000E+00	 0.000E+00	 0.000E+00	 0.000E+00	 0.000E+00	 0.000E+00	 0.000E+00	 0.000E+00	 0.000E+00	 0.000E+00	 0.000E+00	 0.000E+00	 0.000E+00	 0.000E+00	 0.000E+00	 0.000E+00	 0.000E+00	 0.000E+00	 0.000E+00	 0.000E+00	 0.000E+00	 0.000E+00	 0.000E+00	 0.000E+00	 0.000E+00	 0.000E+00	 0.000E+00	 0.000E+00	 0.000E+00	 0.000E+00	 0.000E+00	 0.000E+00	 0.000E+00	 0.000E+00	 0.000E+00
    9.0000	 9.960E-01	 4.553E-06	-8.955E-02	 9.951E+02	 1.000E+03	 9.001E+01	 2.185E+00	 9.520E+00	 0.000E+00	 5.382E-02	 4.693E-01	 8.546E-01	 7.410E-01	 7.650E-01	 8.606E-01	 8.625E-01	 8.500E-01	-6.165E-02	-3.836E-03	 9.637E-04	-2.430E-04	 6.150E-05	-1.561E-05	-1.014E-06	 1.707E-08	 7.543E-11	-8.839E-14	-5.536E-17	 0.000E+00	 0.000E+00	 0.000E+00	 0.000E+00	 0.000E+00	 0.000E+00	 0.000E+00	 0.000E+00	 0.000E+00	 0.000E+00	 0.000E+00	 0.000E+00	 0.000E+00	 0.000E+00	 0.000E+00	 0.000E+00	 0.000E+00	 0.000E+00	 0.000E+00	 0.000E+00	 0.000E+00	 0.000E+00	 0.000E+00	 0.000E+00	 0.000E+00	 0.000E+00	 0.000E+00	 0.000E+00	 0.000E+00	 0.000E+00	 0.000E+00	 0.000E+00	 0.000E+00	 0.000E+00	 0.000E+00	 0.000E+00	 0.000E+00	 0.000E+00	 0.000E+00	 0.000E+00	 0.000E+00	 0.000E+00	 0.000E+00	 0.000E+00	 0.000E+00	 0.000E+00	 0.000E+00	 0.000E+00	 0.000E+00	 0.000E+00	 0.000E+00	 0.000E+00	 0.000E+00	 0.000E+00	 0.000E+00	 0.000E+00	 0.000E+00	 0.000E+00	 0.000E+00	 0.000E+00	 0.000E+00	 0.000E+00	 0.000E+00	 0.000E+00	 0.000E+00	 0.000E+00	 0.000E+00	 0.000E+00	 0.000E+00	 0.000E+00	 0.000E+00	 0.000E+00	 0.000E+00	 0.000E+00	 0.000E+00	 0.000E+00	 0.000E+00	 0.000E+00	 0.000E+00	 0.000E+00	 0.000E+00	 0.000E+00	 0.000E+00	 0.000E+00	 0.000E+00	 0.000E+00	 0.000E+00	 0.000E+00	 0.000E+00	 0.000E+00	 0.000E+00	 0.000E+00	 0.000E+00	 0.000E+00	 0.000E+00	 0.000E+00	 0.000E+00	 0.000E+00	 0.000E+00	 0.000E+00	 0.000E+00	 0.000E+00	 0.000E+00	 0.000E+00	 0.000E+00	 0.000E+00	 0.000E+00	 0.000E+00	 0.000E+00	 0.000E+00	 0.000E+00	 0.000E+00	 0.000E+00	 0.000E+00	 0.000E+00	 0.000E+00	 0.000E+00	 0.000E+00	 0.000E+00	 0.000E+00	 0.000E+00	 0.000E+00	 0.000E+00	 0.000E+00	 0.000E+00	 0.000E+00	 0.000E+00	 0.000E+00	 0.000E+00	 0.000E+00	 0.000E+00	 0.000E+00	 0.000E+00	 0.000E+00	 0.000E+00	 0.000E+00	 0.000E+00	 0.000E+00	 0.000E+00	 0.000E+00	 0.000E+00	 0.000E+00	 0.000E+00	 0.000E+00	 0.000E+00	 0.000E+00	 0.000E+00	 0.000E+00	 0.000E+00	 0.000E+00	 0.000E+00	 0.000E+00	 0.000E+00	 0.000E+00	 0.000E+00	 0.000E+00	 0.000E+00	 0.000E+00	 0.000E+00	 0.000E+00	 0.000E+00	 0.000E+00	 0.000E+00	 0.000E+00	 0.000E+00	 0.000E+00	 0.000E+00	 0.000E+00	 0.000E+00	 0.000E+00	 0.000E+00	 0.000E+00	 0.000E+00	 0.000E+00	 0.000E+00	 0.000E+00	 0.000E+00	 0.000E+00	 0.000E+00	 0.000E+00	 0.000E+00	 0.000E+00	 0.000E+00	 0.000E+00	 0.000E+00	 0.000E+00	 0.000E+00	 0.000E+00	 0.000E+00	 0.000E+00	 0.000E+00	 0.000E+00	 0.000E+00	 0.000E+00	 0.000E+00	 0.000E+00	 0.000E+00	 0.000E+00	 0.000E+00	 0.000E+00	 0.000E+00	 0.000E+00	 0.000E+00	 0.000E+00	 0.000E+00	 0.000E+00	 0.000E+00	 0.000E+00	 0.000E+00	 0.000E+00	 0.000E+00	 0.000E+00	 0.000E+00	 0.000E+00	 0.000E+00	 0.000E+00	 0.000E+00	 0.000E+00	 0.000E+00	 0.000E+00	 0.000E+00	 0.000E+00	 0.000E+00	 0.000E+00	 0.000E+00	 0.000E+00	 0.000E+00	 0.000E+00	 0.000E+00	 0.000E+00	 0.000E+00	 0.000E+00	 0.000E+00	 0.000E+00	 0.000E+00	 0.000E+00	 0.000E+00	 0.000E+00	 0.000E+00	 0.000E+00	 0.000E+00	 0.000E+00	 0.000E+00	 0.000E+00	 0.000E+00	 0.000E+00	 0.000E+00	 0.000E+00	 0.000E+00	 0.000E+00	 0.000E+00	 0.000E+00	 0.000E+00	 0.000E+00	 0.000E+00	 0.000E+00	 0.000E+00	 0.000E+00	 0.000E+00	 0.000E+00	 0.000E+00	 0.000E+00	 0.000E+00	 0.000E+00	 0.000E+00	 0.000E+00	 0.000E+00	 0.000E+00	 0.000E+00	 0.000E+00	 0.000E+00	 0.000E+00	 0.000E+00	 0.000E+00	 0.000E+00	 0.000E+00	 0.000E+00	 0.000E+00	 0.000E+00	 0.000E+00	 0.000E+00	 0.000E+00	 0.000E+00	 0.000E+00	 0.000E+00	 0.000E+00	 0.000E+00	 0.000E+00	 0.000E+00	 0.000E+00	 0.000E+00	 0.000E+00	 0.000E+00	 0.000E+00	 0.000E+00	 0.000E+00	 0.000E+00	 0.000E+00	 0.000E+00	 0.000E+00	 0.000E+00	 0.000E+00	 0.000E+00	 0.000E+00	 0.000E+00	 0.000E+00	 0.000E+00	 0.000E+00	 0.000E+00	 0.000E+00	 0.000E+00	 0.000E+00	 0.000E+00	 0.000E+00	 0.000E+00	 0.000E+00	 0.000E+00	 0.000E+00	 0.000E+00	 0.000E+00	 0.000E+00	 0.000E+00