# vtk DataFile Version 3.0
Low resolution, disturbed wind of YZ Slice at time = 0 seconds.
ASCII
DATASET STRUCTURED_POINTS
DIMENSIONS     1    26    12
ORIGIN    1378.00     635.00      15.00
SPACING      30.00      30.00      30.00
POINT_DATA             312
VECTORS DisYZ float
      4.83       0.07       0.31
      5.41       0.15       0.82
      6.12       0.77       0.03
      6.57       0.05      -0.36
      5.91      -0.15      -0.11
      6.83      -0.07      -0.52
      6.17       0.33      -0.21
      5.47       0.86      -0.55
      4.91       1.04       0.17
      2.75       0.01       0.40
      4.25       0.25      -0.45
      3.27       0.81       0.23
      4.91       0.61       0.08
      5.00       0.58      -0.05
      3.63       0.51       0.36
      5.03      -0.34       0.03
      5.34      -0.27      -0.02
      5.53       0.03      -0.06
      6.68       0.22      -0.25
      5.72       0.20       0.04
      4.21       0.69       0.27
      5.68      -0.42       0.24
      5.51      -0.08       0.05
      5.61      -0.71      -0.12
      6.66      -0.42       0.10
      7.56       0.55      -0.15
      7.29       1.24       0.01
      7.45       0.56      -0.34
      6.11       0.23       0.55
      6.65       0.26       0.03
      7.45       0.13       0.07
      7.09       0.20      -0.73
      7.07       0.47      -0.39
      6.77      -0.16      -0.45
      5.41       0.03       0.16
      5.64       0.55      -0.14
      7.14       0.52       0.03
      6.53       0.35       0.11
      6.65       0.31      -0.24
      5.63      -0.09       0.30
      4.85       0.49       0.60
      6.61       0.32      -0.47
      6.87       0.23      -0.31
      6.10       0.45       0.09
      7.48       0.48      -0.16
      7.77       0.05      -0.25
      7.30      -0.14       0.36
      6.74      -0.42       0.51
      7.65      -0.37      -0.27
      7.63      -0.17      -0.47
      7.67      -0.45      -0.33
      7.56      -0.68      -0.04
      8.16       0.77       0.09
      8.20       1.03      -0.51
      6.82       0.58       0.69
      7.57       0.79      -0.32
      7.24       0.89       0.33
      7.52       0.39      -0.16
      8.00       0.40      -0.40
      7.01       0.48      -0.28
      7.69      -0.02      -0.47
      7.77       0.46      -0.15
      6.96       0.10      -0.22
      7.03       0.22      -0.01
      7.41       0.04      -0.01
      5.84      -0.25       0.72
      6.26       0.52       0.72
      7.20      -0.14       0.09
      7.44      -0.19      -0.12
      8.43      -0.24      -0.32
      8.97      -0.01      -0.56
      8.03       0.43       0.43
      7.37      -1.19       0.35
      7.26      -0.70       0.71
      9.21       0.13      -0.23
      7.43      -0.59       0.11
      7.80      -0.60       0.24
      7.96       0.07       0.40
      7.98       0.01       0.35
      7.90       0.20       0.24
      8.02       0.03       0.21
      7.48       0.30      -0.14
      7.65       0.22      -0.01
      7.57       0.15      -0.07
      7.60       0.18      -0.27
      7.91       0.06      -0.30
      7.68      -0.24      -0.46
      7.18       0.21      -0.13
      7.52       0.24      -0.18
      7.26      -0.31       0.26
      8.55       0.13      -0.21
      7.71      -0.53       0.82
      7.48      -0.50       0.66
      7.81      -0.64       0.59
      7.74      -0.64       0.07
      8.50      -0.18      -0.22
      9.00      -0.08      -0.66
      7.99      -0.20       0.19
      8.12      -0.31       0.83
      9.03      -0.38       0.04
      9.02      -0.19      -0.08
      8.08      -0.32       0.59
      8.51      -0.44      -0.01
      7.76      -0.16       0.44
      8.55      -0.56      -0.15
      7.79      -0.31       0.11
      8.07      -0.31       0.26
      8.17      -0.24       0.29
      8.21      -0.50       0.32
      8.30      -0.25      -0.28
      8.07      -0.17      -0.11
      7.96      -0.62      -0.22
      8.44      -0.84      -0.13
      8.53      -0.63       0.09
      9.03      -0.23       0.21
      7.85      -0.21       0.28
      7.69      -0.23       0.03
      7.98       0.23       0.76
      7.62       0.08       0.91
      8.04       0.29       0.22
      8.61       0.27      -0.63
      8.92       0.23      -0.50
      8.93      -0.51      -0.07
      8.27      -0.65       0.08
      8.21      -0.24       0.52
      8.32      -0.10       0.33
      9.10      -0.62      -0.10
      8.79      -0.37       0.25
      8.28      -0.65       0.17
      8.33      -0.62       0.35
      9.38      -0.74       0.17
      7.97      -0.74      -0.04
      8.46      -0.66       0.27
      8.87      -0.72       0.17
      9.19      -0.24      -0.36
      8.98       0.02      -0.25
      8.89      -0.30      -0.28
      9.10      -0.60       0.51
      8.89      -0.24       0.26
      8.07      -0.18      -0.05
      8.86       0.24      -0.07
      8.45       0.50       0.32
      8.35       0.02       0.21
      9.11      -0.09       0.14
      7.38       0.82       1.28
      8.23       1.02      -0.10
      9.39       0.23      -0.68
      9.27       0.16      -0.56
      8.56      -0.11       0.65
      8.62      -0.16      -0.24
      8.79      -0.63       0.51
      9.13      -0.32       0.13
      9.14      -0.49      -0.01
      8.89      -0.62       0.09
      8.85      -0.30      -0.02
      8.80      -0.23       0.10
      9.37      -0.75       0.03
      9.06      -0.69      -0.05
      8.57      -0.17       0.03
      9.11      -0.32      -0.18
      9.30      -0.15       0.11
      8.88      -0.12      -0.36
      8.37      -0.34      -0.47
      8.44      -0.49       0.85
      8.09      -0.60       0.26
      9.73      -0.54       0.13
      9.67      -0.32      -0.28
      9.37      -0.10      -0.18
      8.82      -0.10       0.02
      9.05       0.12      -0.07
      8.43      -0.09       0.46
      8.89       0.14       0.14
      9.06      -0.07      -0.53
      8.84      -0.27       0.01
      8.73      -0.76       0.34
      8.42      -0.51       0.30
      9.10      -0.66       0.14
      9.16      -0.72      -0.14
      8.72      -0.97      -0.00
      9.35      -0.66      -0.35
      8.92      -0.19      -0.07
      9.33      -0.17      -0.22
      9.29      -0.65      -0.27
      9.39      -0.69      -0.04
      9.06      -0.68       0.11
      9.29      -0.82      -0.13
      9.36      -0.62      -0.10
      9.34      -0.61      -0.45
      8.98      -0.10      -0.07
      8.42      -0.56       0.96
      7.92      -0.71       0.64
      8.66       0.06       0.30
      9.46       0.01      -0.38
      9.12      -0.17      -0.04
      9.84       0.02      -0.14
      9.02       0.11       0.09
      9.13      -0.06       0.41
      8.73       0.11      -0.19
      9.52       0.12      -0.22
      8.72      -0.56      -0.41
      8.42      -0.54       0.69
      8.63      -0.25      -0.08
      9.45      -0.64      -0.00
      9.30      -0.92       0.05
      9.23      -1.11       0.02
     10.29      -0.79      -0.70
      9.21      -0.33       0.15
      9.47      -0.43      -0.15
      9.23      -0.61      -0.08
      9.52      -1.03       0.36
      9.03      -0.92       0.29
      9.40      -0.76      -0.38
      9.60      -0.46       0.01
      9.34      -0.53      -0.19
      8.19      -1.18       0.02
      8.70      -0.93       0.13
      8.29      -0.54      -0.06
      9.10      -0.77       0.14
      9.19      -0.25       0.16
      9.02       0.13       0.26
      9.52       0.20      -0.03
      9.14       0.15      -0.02
      8.82       0.13       0.64
      9.38       0.06      -0.48
      9.59      -0.32      -0.05
      9.03       0.03      -0.03
      9.92      -0.06      -0.13
      9.53      -0.14      -0.06
      9.59      -0.84       0.22
      9.33      -1.30       0.41
      9.99      -1.01      -0.32
     10.67      -0.95      -0.89
     10.52      -0.78      -0.38
      9.57      -0.68       0.16
      8.68      -0.10      -0.01
      8.63      -0.33       0.72
      9.68      -0.03       0.01
      9.82      -0.05      -0.20
      9.54      -0.60      -0.37
      9.53      -0.51      -0.31
      9.98      -0.64      -0.42
     10.58      -1.01      -0.09
      9.52      -0.91      -0.05
     10.29      -0.78      -0.20
      9.25      -0.44       0.03
      9.18      -0.12       0.33
      9.18      -0.18      -0.14
      8.51       0.08       0.40
      8.47       0.17       0.44
      9.87      -0.27      -0.13
      9.77      -0.52      -0.32
     10.06      -0.52      -0.49
      9.53      -0.51      -0.09
      9.49      -0.83       0.21
      9.50      -0.70       0.38
      9.53      -0.57       0.20
     10.24      -0.90      -0.89
     10.59      -1.09      -0.99
      9.82      -1.11      -0.40
      9.42      -0.75       0.23
      9.36      -0.14       0.14
      9.07       0.09       0.13
      9.35       0.31       0.04
      9.52      -0.07      -0.14
      9.54       0.04       0.06
      9.58      -0.44       0.20
      9.71      -0.49       0.31
      9.95      -0.92      -0.03
     10.08      -1.03       0.15
      9.72      -0.72       0.13
      9.70      -0.87       0.02
      8.90      -0.84      -0.07
      9.73      -0.90      -0.02
      9.22      -0.93       0.11
      9.89      -0.73       0.29
     10.16      -0.70       0.04
     10.40      -0.49      -0.09
      9.85      -0.74      -0.31
      9.72      -0.74      -0.25
      9.48      -0.85       0.08
      9.52      -0.47       0.28
      9.33      -0.55       0.23
     10.24      -0.58      -0.56
      9.72      -0.74      -0.31
     11.06      -1.17      -0.12
      9.76      -1.24      -0.14
      9.52      -0.01       0.41
      9.54       0.24       0.36
      9.65       0.36       0.14
      9.55       0.25      -0.09
      9.73      -0.24       0.17
      9.76      -0.80       0.21
      9.59      -0.85       0.29
      9.93      -0.80      -0.07
      9.38      -0.72       0.19
      9.58      -0.57       0.50
      9.69      -0.52       0.06
      9.74      -0.90       0.02
      9.60      -0.86      -0.00
      9.79      -0.68      -0.02
     10.30      -0.79      -0.04
      9.88      -1.19      -0.09
      9.89      -1.14      -0.16
      9.80      -0.92      -0.28
      9.86      -0.86       0.01
      9.93      -0.68       0.10
      9.62      -0.64       0.11
      9.76      -0.52       0.16
     10.21      -0.82      -0.39
     10.25      -1.25       0.04
     10.31      -1.21      -0.06
     10.26      -0.83      -0.01
