# vtk DataFile Version 3.0
Low resolution, disturbed wind of YZ Slice at time = 39 seconds.
ASCII
DATASET STRUCTURED_POINTS
DIMENSIONS     1    26    12
ORIGIN    1756.00     635.00      15.00
SPACING      30.00      30.00      30.00
POINT_DATA             312
VECTORS DisYZ float
      5.25      -0.02       0.04
      4.47      -0.05       0.10
      7.61      -0.39      -0.73
      6.38       0.81       0.30
      5.09       0.09      -0.07
      5.47      -0.21       0.16
      6.24      -0.03      -0.49
      3.48       0.44       0.65
      5.47      -0.07      -0.03
      4.69      -0.12      -0.02
      4.28       0.39       0.52
      5.60       1.00      -0.46
      5.25       0.65      -0.09
      4.66      -0.50      -0.49
      4.28       0.23      -0.38
      3.99       0.01       0.22
      4.47       0.55       0.20
      4.79      -1.29       0.24
      7.06       0.08       0.29
      6.78       0.59      -0.08
      4.79       0.81       0.22
      6.80       0.60      -0.19
      6.55       0.16      -0.06
      6.03      -0.39       0.09
      6.00       0.26       0.48
      5.84       0.63       0.10
      6.98      -0.33      -0.10
      6.08       0.67       0.47
      7.26       0.25      -0.29
      6.63      -0.07      -0.11
      6.73      -0.26      -0.01
      6.77       0.03       0.04
      6.77       0.61       0.07
      6.05       0.88       0.12
      7.57       0.54      -0.36
      6.72       0.61       0.06
      5.55       0.74       0.75
      7.04       0.68      -0.32
      6.52      -0.03      -0.33
      5.21       0.19      -0.06
      6.78       0.28      -1.04
      6.90      -0.66      -0.14
      5.23      -0.77       0.39
      6.74       0.07       0.18
      7.35       0.24      -0.57
      7.84       0.16      -0.33
      7.75       0.83       0.03
      7.33       0.69      -0.31
      7.24       0.62       0.31
      6.58      -0.08       0.45
      7.55      -0.27       0.22
      8.06      -0.32      -0.34
      7.53      -0.07       0.29
      7.92       0.63       0.08
      8.43       0.51       0.32
      7.24       0.14       0.30
      7.66      -0.07       0.25
      7.85       0.08      -0.27
      7.73       0.25      -0.22
      7.35       0.83       0.26
      7.48       0.03      -0.17
      7.15      -0.47      -0.19
      6.21      -0.39       0.25
      6.61       0.02       0.13
      6.63       0.34       0.58
      7.68       0.64      -0.47
      7.17       0.63      -0.14
      7.41      -0.41       0.31
      6.67      -0.48       0.53
      6.89      -0.47       0.11
      8.50       0.18      -1.12
      7.86       0.09      -0.28
      7.25       0.40       0.16
      7.40      -0.27      -0.32
      7.85      -0.14       0.01
      7.29       0.14       0.47
      7.77       0.47       0.03
      7.79      -0.19       0.36
      7.42       0.39       0.08
      8.31       0.69      -0.14
      7.21       0.32       0.22
      7.02       0.16       0.21
      7.35       0.73       0.53
      7.67       0.45       0.07
      8.21       0.77      -0.17
      7.97       0.74       0.06
      8.11       0.59       0.27
      7.59      -0.03      -0.08
      6.50      -0.36       0.59
      8.01       0.32       0.46
      7.21      -0.01       0.35
      8.45       0.09      -0.02
      8.35      -0.78       0.17
      7.98      -0.85       0.35
      7.68      -0.90       0.09
      7.80      -0.22       0.03
      8.41      -0.21      -0.31
      7.92      -1.00      -0.58
      7.88      -1.20       0.37
      8.98      -0.25      -0.44
      7.92      -0.49       0.42
      8.15      -0.52       0.30
      8.09      -0.49       0.35
      8.68      -0.31       0.07
      8.01      -0.30       0.19
      7.80      -0.89       0.00
      8.38      -0.86      -0.29
      8.35      -0.55      -0.17
      8.13      -0.10       0.16
      8.25       0.21       0.30
      8.77      -0.13      -0.28
      8.40      -0.16       0.17
      8.53      -0.32       0.01
      8.34       0.11       0.22
      8.55      -0.33      -0.14
      8.04      -0.11       0.01
      7.66      -0.23       0.59
      8.10      -0.97       0.46
      8.27      -0.83      -0.14
      8.43      -0.98      -0.39
      8.23      -0.31       0.27
      8.66      -0.30       0.12
      8.57       0.20       0.04
      8.42      -0.21       0.09
      9.05      -1.21      -0.39
      9.19      -0.82      -0.56
      8.73      -0.59       0.32
      8.27       0.06       0.54
      8.62      -0.29       0.03
      8.69      -0.24       0.18
      8.56      -0.31      -0.01
      8.07      -0.65      -0.14
      8.40      -0.50      -0.23
      8.79      -0.51      -0.21
      8.37      -0.49       0.23
      9.01      -0.27      -0.14
      8.98      -0.30       0.18
      8.87      -0.14       0.52
      8.51      -0.05       0.24
      8.67      -0.54       0.24
      8.03      -0.78       0.19
      8.16      -0.18       0.21
      7.91       0.33       0.29
      8.44       0.37       0.29
      8.18       0.68       0.01
      8.96      -0.08      -0.95
      9.17       0.06      -0.24
      8.72       0.01       0.61
      8.59      -0.32       0.02
      8.59      -0.50       0.07
      9.08      -0.69      -0.01
      9.50      -0.44      -0.12
      8.62      -0.63      -0.15
      8.33      -0.28       0.31
      8.47      -0.03       0.20
      8.64       0.07       0.20
      8.51      -0.50      -0.03
      8.28      -0.70       0.03
      8.55      -0.71      -0.03
      9.12      -0.19      -0.57
      8.93      -0.26      -0.14
      8.80      -0.18      -0.49
      8.79      -0.41       0.10
      8.84      -0.11       0.55
      8.50       0.13       0.40
      9.06      -0.11       0.76
      9.58      -0.08       0.25
      9.04       0.08       0.28
      8.91       0.10       0.21
      9.44       0.34       0.00
      8.91       0.36      -0.05
      9.01      -0.55      -0.35
      8.47      -0.55      -0.17
      8.88      -0.28       0.32
      8.87      -0.38       0.49
      9.07      -0.47      -0.18
      9.29      -0.58      -0.25
      8.62      -0.75       0.10
      9.31      -0.72      -0.72
      9.02      -0.36      -0.08
      8.85      -0.14       0.42
      9.40       0.11       0.00
      8.82      -0.67       0.16
      9.16      -0.23      -0.01
      9.46      -0.71       0.07
      9.64      -0.50      -0.13
      9.30      -0.49      -0.01
      8.69      -0.50      -0.26
      8.36      -0.65       0.05
      8.50      -0.41       0.23
      8.29      -0.28       0.34
      8.43       0.07       0.13
      9.04       0.05       0.20
      9.30      -0.15       0.08
      9.62      -0.08      -0.03
      8.39       0.37       0.39
      8.90       0.09       0.06
      9.19      -0.26      -0.42
      9.51      -0.50      -0.11
      8.71      -0.50       0.61
      8.71      -0.75       0.25
      9.30      -0.67       0.05
      9.56      -0.89      -0.12
      9.86      -1.26      -0.24
     10.33      -0.35      -1.04
     10.36      -0.56      -0.14
      9.00      -0.21       0.44
      9.13      -0.23       0.04
      9.29      -0.89       0.02
      9.07      -0.91       0.22
      9.47      -0.93      -0.01
      9.91      -0.63      -0.32
      9.73      -0.49      -0.11
      8.91      -1.05      -0.44
      8.92      -1.05      -0.42
      8.42      -1.26       0.03
      8.39      -0.93       0.14
      9.09      -0.69       0.26
      8.58      -0.06       0.53
      8.64      -0.05       0.26
      9.07       0.05      -0.04
      8.92       0.09       0.14
      9.03      -0.09       0.49
      9.83      -0.32      -0.51
      9.40      -0.32      -0.13
      9.27      -0.19       0.01
      9.51      -0.26      -0.20
      9.44      -0.47      -0.05
      9.41      -1.08       0.32
     10.23      -1.06      -0.99
     10.56      -1.33      -0.81
      9.98      -1.37      -0.29
      9.64      -0.81      -0.04
      9.59      -0.43       0.04
      8.46      -0.20       0.07
      9.55      -0.78       0.63
      9.62      -0.70      -0.11
      9.61      -0.40      -0.13
      9.50      -0.80      -0.37
      9.49      -0.67      -0.49
     10.20      -0.96      -0.34
      9.52      -0.83      -0.18
      9.63      -0.73      -0.12
      9.29      -0.51      -0.29
      9.55      -0.31       0.09
      9.19      -0.03       0.28
      9.24      -0.02       0.08
      8.66       0.20       0.27
      9.30      -0.22       0.21
      9.82      -0.42      -0.16
     10.37      -0.53      -0.45
      9.55      -0.66       0.01
      9.40      -0.58       0.16
      9.32      -0.38       0.52
      9.76      -0.60       0.26
     10.14      -0.77      -1.01
     10.27      -1.24      -0.59
     10.02      -1.37      -0.25
      9.79      -0.85       0.25
      9.57      -0.86      -0.06
      9.24      -0.54       0.32
      9.05      -0.29       0.33
      9.38       0.04      -0.26
      9.66      -0.07      -0.15
      9.64      -0.15      -0.26
      9.51      -0.67       0.14
      9.85      -1.02      -0.28
      9.90      -1.11      -0.16
      9.56      -0.88      -0.23
      9.83      -0.67      -0.03
      8.80      -0.73      -0.18
      9.63      -0.69      -0.09
      8.83      -0.61      -0.04
      9.53      -0.84       0.05
     10.06      -0.57      -0.07
     10.29      -0.65      -0.23
      9.62      -0.67      -0.36
      9.60      -0.72      -0.15
      9.36      -0.80      -0.04
      9.80      -0.56       0.17
      9.60      -0.68       0.02
     10.38      -0.80      -0.44
     10.04      -1.20      -0.14
     10.55      -1.32      -0.33
      9.65      -1.46      -0.23
     10.03      -1.04      -0.21
      9.29       0.01       0.16
      9.39       0.20      -0.05
      9.79       0.38      -0.06
      9.64       0.21      -0.20
      9.67      -0.81       0.17
      9.73      -0.71       0.16
      9.85      -0.81       0.05
      9.54      -0.68       0.22
      9.51      -0.44       0.03
      9.66      -0.77       0.08
     10.03      -0.89       0.01
      9.67      -0.80       0.10
      9.78      -0.77       0.01
      9.96      -0.75       0.04
      9.81      -1.25      -0.05
      9.90      -1.06      -0.05
     10.06      -1.10      -0.31
      9.92      -0.95       0.07
     10.01      -0.76       0.11
      9.86      -0.67       0.13
      9.83      -0.53       0.10
     10.08      -0.81      -0.28
     10.44      -1.06      -0.09
     10.07      -1.25       0.07
     10.11      -0.97      -0.19
     10.02      -1.12      -0.14
