# vtk DataFile Version 3.0
Low resolution, disturbed wind of YZ Slice at time = 27 seconds.
ASCII
DATASET STRUCTURED_POINTS
DIMENSIONS     1    26    12
ORIGIN    1630.00     635.00      15.00
SPACING      30.00      30.00      30.00
POINT_DATA             312
VECTORS DisYZ float
      5.00       0.48       0.03
      4.15       0.76      -0.10
      5.88       0.83      -0.11
      5.83      -0.38       0.66
      5.70      -0.50       0.22
      5.57       0.15      -0.06
      5.31       0.36      -0.02
      4.24       0.23       0.31
      5.29       1.54      -0.17
      3.84       1.08       0.63
      5.19       0.63      -0.15
      4.45       0.42      -0.27
      5.11       0.47      -0.22
      3.75      -0.31       0.39
      4.13      -0.29      -0.30
      5.52       0.31      -0.17
      4.03      -0.01       0.06
      5.28      -1.06       0.16
      6.88      -0.38      -0.95
      6.29       0.14      -0.08
      5.54       1.22       0.50
      5.40      -0.09      -0.07
      6.23       0.29      -0.24
      7.06      -0.43      -0.17
      6.35      -0.09       0.43
      5.91      -0.63       0.35
      7.36       0.31      -0.22
      6.76       0.17       0.77
      6.85       0.27       0.46
      7.79      -0.22      -0.32
      6.57      -0.25       0.14
      6.51      -0.50       0.08
      7.62       0.07      -0.29
      7.53       0.60       0.05
      7.49       0.54      -0.38
      5.93       0.34       0.38
      6.56       0.89      -0.11
      6.71       0.63       0.13
      6.43       0.68       0.16
      5.62       0.75       0.73
      6.33       0.32      -0.83
      7.11      -0.06      -0.31
      5.70      -0.55       0.79
      7.14       0.20      -0.13
      7.96       0.23      -0.96
      7.80       0.32      -0.53
      7.39       0.20      -0.20
      7.09       0.34       0.49
      6.96      -0.09       0.01
      7.38      -0.41       0.58
      7.66       0.37       0.13
      7.43      -0.47       0.49
      7.36      -0.09       0.39
      8.31       0.01      -0.01
      8.31       0.30      -0.06
      7.41       0.61       0.55
      7.58       0.77      -0.03
      7.97       1.11       0.14
      8.23       0.55      -0.21
      7.85       0.72      -0.05
      7.29       0.23      -0.03
      7.07      -0.06       0.10
      6.81       0.38       0.24
      6.98       0.26       0.57
      6.79       0.31      -0.02
      7.08       0.46       0.55
      6.45       0.55       0.26
      7.52      -0.05       0.34
      6.49      -0.25       0.44
      7.83      -0.39      -0.39
      8.41       0.20      -1.09
      8.23      -0.33       0.14
      6.55      -0.26      -0.13
      7.44      -0.95      -0.11
      8.18      -0.44       0.15
      7.62      -0.55       0.08
      7.29      -0.41       0.56
      7.52      -0.31       0.27
      7.17      -0.32      -0.37
      9.07      -0.14      -0.11
      6.94       0.23       0.13
      7.60       0.88       0.41
      7.26       1.07       0.31
      7.57       0.77      -0.05
      7.81       0.26      -0.22
      7.91      -0.09      -0.21
      7.53       0.22       0.44
      6.84      -0.09       0.38
      7.43      -0.12       0.06
      7.41       0.30       0.46
      7.33       0.33       0.04
      7.91       0.54       0.23
      7.50      -0.53       0.48
      7.87      -1.15      -0.01
      7.54      -0.78      -0.25
      8.29      -0.37      -0.71
      8.40      -0.09      -0.51
      7.89      -0.94      -0.04
      7.53      -1.37       0.52
      8.79      -0.69      -0.64
      8.15      -0.70       0.39
      7.91      -0.64       0.21
      8.05      -0.55       0.23
      8.34      -0.01       0.10
      8.34      -0.16       0.16
      7.80      -0.82      -0.05
      8.17      -0.64       0.04
      7.99      -0.63       0.17
      7.94      -0.45       0.01
      8.40      -0.08       0.13
      8.12      -0.20      -0.03
      8.54      -0.91      -0.15
      8.53      -0.57      -0.08
      8.09      -0.01       0.34
      8.63      -0.05       0.13
      7.85      -0.32      -0.04
      7.98       0.01       0.33
      7.99       0.07       0.20
      8.00      -0.74       0.55
      8.37      -0.38      -0.23
      8.50      -0.35      -0.66
      8.96      -0.14      -0.51
      8.40      -0.42      -0.13
      8.27      -0.15       0.16
      8.48      -0.62      -0.35
      8.95      -0.81      -0.34
      8.92      -0.57       0.48
      8.55      -0.12       0.41
      8.13      -0.00       0.08
      8.63      -0.50       0.37
      8.62      -0.56      -0.14
      7.91      -0.48       0.22
      9.00      -0.82      -0.04
      8.71      -0.50       0.09
      8.85      -0.32      -0.12
      8.93      -0.26      -0.11
      8.92      -0.45       0.20
      8.57      -0.02       0.66
      8.66      -0.28       0.19
      8.38      -0.33       0.06
      8.39       0.08      -0.01
      8.32       0.32       0.26
      8.04       0.17       0.47
      8.04       0.45       0.36
      8.05       0.90       0.81
      8.31       0.49      -0.69
      9.30       0.23      -0.76
      8.94       0.26      -0.17
      8.40      -0.13       0.40
      8.79      -0.52       0.01
      8.93      -0.60       0.27
      9.53      -0.43       0.02
      8.57      -0.81      -0.16
      8.34      -0.77      -0.17
      8.55      -0.33      -0.03
      8.70      -0.13       0.14
      8.97      -0.60      -0.02
      8.48      -0.43       0.25
      9.11      -0.62      -0.22
      9.16      -0.15      -0.49
      9.22      -0.24      -0.08
      8.59      -0.30      -0.39
      8.68      -0.59      -0.11
      8.33      -0.38       0.68
      8.22      -0.18       0.49
      9.90      -0.78       0.35
      9.66      -0.29      -0.20
      9.08       0.13       0.05
      8.80      -0.02       0.22
      9.04       0.41      -0.12
      8.67       0.50      -0.28
      8.82       0.03      -0.03
      8.44      -0.58      -0.43
      8.86      -0.64       0.08
      8.91      -0.56       0.53
      8.89      -0.47      -0.19
      9.13      -0.67       0.10
      8.61      -0.81       0.20
      9.09      -0.78      -0.48
      9.11      -0.34      -0.36
      8.85      -0.20       0.19
      9.37      -0.25      -0.16
      9.24      -0.65      -0.11
      9.28      -0.45       0.32
      9.38      -0.84       0.10
      9.83      -0.59      -0.22
      9.00      -0.78      -0.13
      8.84      -0.38      -0.34
      8.50      -0.52       0.09
      8.41      -0.33       0.61
      8.06      -0.45       0.52
      8.32       0.16       0.11
      9.13       0.16      -0.34
      9.16      -0.40       0.11
      9.93      -0.05      -0.22
      8.71       0.08       0.09
      8.82       0.10       0.17
      8.98      -0.02      -0.29
      9.52       0.00      -0.01
      8.41      -0.50       0.21
      8.58      -0.74       0.46
      8.96      -0.52       0.01
      9.66      -0.76      -0.01
      9.16      -1.15      -0.06
     10.38      -0.60      -0.71
     10.50      -0.67      -0.55
      9.03      -0.35       0.28
      9.38      -0.59      -0.07
      9.29      -1.02       0.08
      8.78      -0.91       0.35
      9.31      -0.83       0.18
      9.81      -0.70      -0.37
      9.61      -0.35       0.06
      8.65      -0.98      -0.16
      9.12      -1.01      -0.32
      8.25      -1.17       0.33
      8.13      -0.53       0.27
      9.27      -1.07       0.33
      8.87      -0.08       0.40
      8.74       0.27       0.18
      9.36       0.13      -0.03
      9.09       0.14       0.01
      8.89      -0.01       0.57
      9.79      -0.32      -0.47
      9.50      -0.26      -0.04
      9.06      -0.09       0.03
      9.74      -0.08      -0.09
      9.36      -0.39       0.09
      9.54      -1.15       0.30
     10.08      -1.08      -0.48
     10.33      -0.83      -1.21
     10.29      -1.48      -0.71
      9.86      -1.18       0.08
      9.83      -0.74       0.06
      8.70      -0.31       0.15
      9.19      -0.35       0.72
      9.69      -0.22      -0.20
      9.51      -0.08      -0.21
      9.39      -0.76      -0.18
      9.64      -0.53      -0.47
      9.76      -0.82      -0.49
      9.50      -1.09      -0.17
      9.85      -1.18      -0.19
      9.82      -0.74      -0.11
      9.41      -0.28       0.15
      9.13      -0.04       0.40
      9.13      -0.06      -0.06
      8.58       0.04       0.54
      8.74       0.02       0.36
      9.75      -0.24      -0.22
     10.18      -0.60      -0.46
      9.82      -0.84      -0.10
      9.25      -0.68       0.05
      9.25      -0.59       0.48
      9.71      -0.41       0.23
      9.86      -0.52      -0.66
     10.36      -0.91      -0.88
     10.32      -1.53      -0.57
      9.83      -1.13       0.03
      9.43      -0.76      -0.13
      9.32      -0.27       0.15
      8.98       0.19       0.30
      9.46       0.26      -0.07
      9.65      -0.04      -0.14
      9.67      -0.09      -0.14
      9.57      -0.58       0.31
      9.72      -0.84      -0.07
     10.08      -1.05      -0.02
      9.88      -0.87      -0.06
      9.77      -0.64      -0.00
      8.84      -0.85      -0.16
      9.75      -0.80      -0.06
      8.95      -0.84      -0.14
      9.35      -0.89       0.01
      9.96      -0.60       0.07
     10.48      -0.81      -0.18
      9.86      -0.66      -0.39
      9.56      -0.87      -0.27
      9.57      -0.94      -0.11
     10.03      -0.78       0.18
      9.50      -0.47       0.15
     10.02      -0.78      -0.38
      9.94      -1.11      -0.41
     10.64      -1.43      -0.18
      9.93      -1.64      -0.39
      9.98      -1.49      -0.24
      9.39       0.19       0.25
      9.41       0.37       0.16
      9.81       0.27      -0.01
      9.59       0.19      -0.10
      9.58      -0.66       0.19
     10.12      -0.86       0.14
      9.53      -0.67       0.20
      9.77      -0.80       0.27
      9.40      -0.38       0.20
      9.71      -0.95       0.29
     10.00      -0.72       0.05
      9.76      -0.83       0.02
      9.74      -0.77      -0.06
      9.83      -0.75      -0.01
      9.94      -1.16       0.12
     10.04      -1.17      -0.15
      9.83      -0.96      -0.16
      9.93      -0.97      -0.15
     10.11      -0.99      -0.13
      9.91      -0.70       0.12
      9.57      -0.62       0.09
     10.03      -0.72      -0.25
      9.90      -0.94      -0.07
     10.69      -1.20      -0.16
     10.04      -0.93      -0.12
     10.01      -0.95      -0.21
