# vtk DataFile Version 3.0
Low resolution, disturbed wind of YZ Slice at time = 54 seconds.
ASCII
DATASET STRUCTURED_POINTS
DIMENSIONS     1    26    12
ORIGIN    1756.00     635.00      15.00
SPACING      30.00      30.00      30.00
POINT_DATA             312
VECTORS DisYZ float
      5.52       0.53      -0.43
      4.61       0.19      -0.20
      6.28       0.27      -0.10
      5.53      -0.39       0.19
      6.49      -0.76      -0.31
      6.40       0.08      -0.16
      6.14       0.58       0.01
      5.83      -0.07      -0.40
      5.10       0.47       0.49
      4.51       0.31      -0.18
      4.13       0.60       0.02
      5.20      -0.42       0.49
      4.81       0.32      -0.31
      4.31      -0.00       0.25
      4.81      -0.49       0.08
      5.43      -0.09      -0.10
      4.52       0.11       0.00
      5.74       0.31      -0.12
      6.21      -0.18      -0.39
      7.32       0.07      -0.47
      5.45       0.46       0.21
      5.59       0.12       0.11
      5.55      -0.05      -0.20
      6.42      -0.18       0.37
      5.72      -0.29       0.25
      5.34      -0.56       0.47
      7.85      -0.01      -0.41
      6.79       1.30       0.25
      7.43       0.48      -0.09
      6.10       0.13       0.32
      6.91      -0.24       0.04
      7.42       0.37      -0.37
      7.19       0.38      -0.07
      6.42       0.21       0.25
      6.37       0.53       0.36
      6.31       0.59      -0.13
      6.22       0.34      -0.44
      6.07       0.49       0.34
      6.36       0.23       0.04
      6.32       0.01       0.68
      5.61       0.43       0.18
      6.36      -0.19      -0.08
      7.40      -0.21      -0.38
      6.58       0.67      -0.19
      7.20       0.62      -0.06
      7.58      -0.25      -0.22
      6.61      -0.32       0.00
      6.97      -0.54       0.10
      7.94      -0.23       0.26
      6.91      -0.23      -0.14
      8.00      -0.69      -0.44
      7.83      -0.29      -0.26
      8.34      -0.14      -0.29
      8.45      -0.30      -0.22
      7.77      -0.11       0.18
      7.52       0.15      -0.11
      7.35       0.63       0.03
      7.85       0.03      -0.10
      7.93      -0.12      -0.24
      7.28      -0.07      -0.37
      7.43       0.10      -0.26
      7.40       0.31      -0.47
      7.09       0.19      -0.18
      6.87       0.13      -0.18
      7.33      -0.10      -0.07
      7.07      -0.32       0.39
      6.78       0.17       0.29
      6.38       0.18       0.16
      8.61      -0.41      -0.59
      8.40      -0.67      -0.10
      8.01      -1.00       0.09
      8.02      -0.85      -0.07
      8.00      -0.85      -0.06
      8.51      -0.11       0.02
      7.57      -0.71       0.04
      7.62      -0.77       0.73
      8.75      -0.60      -0.59
      8.03      -0.39       0.31
      8.53      -0.15      -0.20
      7.78      -0.35      -0.14
      8.02      -0.58       0.31
      8.28      -0.20      -0.31
      7.59      -0.10      -0.22
      7.77       0.07      -0.16
      7.98      -0.13      -0.03
      7.47      -0.08      -0.22
      7.31       0.03       0.01
      8.03       0.10      -0.19
      7.35       0.07      -0.39
      7.18      -0.29       0.15
      8.53      -0.22      -0.29
      7.45      -0.07       0.39
      7.69      -0.11       0.20
      7.71       0.26       0.66
      8.16       0.91       1.11
      7.96      -0.91       0.07
      7.76      -0.97       0.10
      8.28      -0.78       0.05
      8.00      -0.78       0.63
      8.53      -0.40      -0.10
      8.22      -0.81      -0.07
      8.39      -0.27      -0.14
      8.27      -0.12      -0.12
      8.18      -0.20       0.17
      8.48      -0.12       0.15
      8.61      -0.62       0.08
      9.26      -0.29      -0.17
      8.98      -0.36       0.37
      9.05       0.17       0.10
      8.57       0.24       0.04
      7.61      -0.38       0.06
      8.00       0.05      -0.18
      8.64      -0.36      -0.84
      8.58      -0.45       0.38
      7.87      -0.55      -0.33
      8.03      -0.20      -0.03
      8.63       0.04      -0.43
      8.22      -0.03       0.26
      7.77       0.04       0.68
      8.64       0.60      -0.03
      8.13       0.43       0.68
      8.65       0.22       0.28
      7.99      -0.03       0.09
      8.07      -0.46      -0.04
      8.56      -0.71      -0.00
      8.57      -0.53       0.05
      8.98      -0.62      -0.24
      9.34      -0.13      -0.66
      9.67       0.12       0.02
      8.42       0.11       0.33
      8.99      -0.80       0.12
      9.37      -0.49       0.02
      9.26      -0.45      -0.33
      8.68      -0.01      -0.25
      8.39      -0.01       0.53
      8.66       0.02       0.07
      8.20       0.41       0.51
      9.31      -0.39      -0.95
      9.62      -1.32      -0.50
      9.23      -0.58      -0.27
      9.16      -0.37      -0.81
      8.63       0.07      -0.19
      8.86      -0.12      -0.24
      8.31       0.37       0.20
      7.73      -0.07       0.61
      8.55       0.44      -0.03
      8.07       0.32       0.57
      8.03       0.71       0.02
      8.40       0.72       0.14
      7.87      -0.29       0.08
      7.90      -0.52       0.52
      8.70      -0.83       0.17
      9.12      -0.59      -0.13
      9.36      -0.54      -0.74
      8.72      -0.38       0.32
      9.19      -0.10       0.11
      8.94      -0.72       0.30
      9.06      -0.69      -0.10
      9.29      -0.84      -0.35
      9.06      -0.84      -0.19
      8.76      -0.66       0.38
      8.77      -0.68       0.18
      8.78      -0.14      -0.06
      9.57      -0.55      -0.50
      9.07      -0.10      -0.06
      9.23      -0.29      -0.63
      9.45      -0.37      -0.75
      9.46      -0.46      -0.27
      8.66      -0.21       0.18
      8.86      -0.30      -0.07
      8.55      -0.03       0.62
      8.29       0.18       0.16
      8.16       0.00       0.20
      8.58       0.30       0.08
      8.20      -0.18       0.63
      8.08      -0.48       0.19
      8.58      -0.49       0.20
      8.99      -0.85      -0.07
      9.44      -0.72      -0.43
      9.20      -0.96      -0.25
      9.04      -0.87      -0.19
      9.08      -0.62      -0.08
      8.45      -0.22      -0.01
      8.64      -0.10       0.08
      9.30      -0.62       0.02
      9.47      -0.80      -0.10
      8.76      -1.21      -0.11
      8.79      -0.85       0.38
      8.63      -0.22       0.13
      9.38      -0.06      -0.31
     10.00      -0.32      -0.46
      9.44      -0.01      -0.43
      9.57      -0.36      -0.64
      9.12      -0.80      -0.39
      8.84      -0.31      -0.11
      8.35      -0.39       0.01
      8.21      -0.46       0.48
      8.56      -0.44      -0.26
      8.06      -0.42       0.32
      8.40      -0.72       0.14
      8.12      -0.59       0.67
      8.60      -0.10       0.21
      8.94       0.03      -0.19
      9.38       0.14      -0.06
      9.39      -0.42       0.11
      9.20      -0.79      -0.13
      9.73      -0.74      -0.60
      9.67      -0.43      -0.27
      8.57       0.05      -0.02
      8.76       0.10      -0.33
      8.84       0.02       0.03
      9.50      -0.77       0.54
      8.99      -0.84       0.01
      9.79      -0.12       0.23
      9.15      -0.71       0.08
      8.23      -0.65      -0.05
      8.97      -0.02       0.02
      9.54      -0.26      -0.38
      9.59      -0.75      -0.09
      8.87      -0.70      -0.24
      9.02      -0.98      -0.31
      8.34      -0.49      -0.18
      8.37      -0.45       0.15
      9.10      -0.91       0.18
      9.18      -0.66      -0.12
      9.31      -0.39       0.09
      8.16      -0.34       0.73
      9.41      -0.40       0.21
      9.53      -0.30       0.03
      9.16      -0.38       0.23
      9.48      -0.79       0.37
      9.45      -0.84      -0.03
      9.94      -0.67      -0.51
      9.92      -0.73      -0.32
      8.98       0.32      -0.18
      9.79      -0.30       0.09
      9.04      -0.33       0.23
      9.23      -0.68       0.16
      9.10      -0.80       0.40
      8.24      -0.96       0.74
      9.09      -0.85       0.28
      9.59      -0.86      -0.08
      9.92      -0.85      -0.20
      9.53      -0.95      -0.41
      9.13      -1.14      -0.03
      9.54      -1.15      -0.19
      9.33      -0.88       0.08
      9.91      -0.44      -0.10
      8.37      -0.65      -0.00
      9.46      -0.68       0.04
      9.96      -0.72      -0.40
      9.85      -0.56      -0.06
      9.27      -0.57       0.53
      8.90      -0.26       0.41
      9.06      -0.43       0.27
      9.71      -0.77       0.35
      9.56      -1.20       0.20
     10.22      -1.13      -0.11
      9.71      -0.76      -0.37
      9.59      -0.94      -0.28
      9.71      -0.43       0.01
      9.73      -0.82       0.13
      9.33      -0.32       0.38
      9.00      -0.37       0.30
      9.59      -0.54       0.59
      8.82      -0.64       0.58
      9.31      -0.70       0.62
      9.45      -0.31       0.09
      9.93      -0.77       0.22
      9.79      -1.04      -0.18
      9.59      -1.19      -0.31
      9.78      -0.80       0.10
      9.16      -0.93       0.10
      9.55      -0.88       0.12
      9.46      -0.67       0.11
      9.86      -0.48      -0.08
      9.89      -0.52      -0.24
      9.22      -0.75       0.07
      8.78      -0.53       0.60
      9.18      -0.49       0.23
      9.85      -0.72       0.19
      9.79      -0.50       0.24
      9.94      -0.21       0.14
      9.74      -0.68       0.13
      9.75      -0.68      -0.39
      9.82      -0.82      -0.01
      9.76      -0.27       0.45
      9.73      -0.77       0.35
      9.23      -0.78      -0.06
      9.21      -0.67       0.36
      9.22      -0.27       0.44
      9.15      -0.79       0.86
      9.41      -0.57       0.44
      9.67      -0.66       0.32
     10.25      -0.59       0.20
      9.80      -1.06      -0.02
      9.80      -1.33      -0.17
      9.84      -1.37      -0.20
      9.77      -1.08       0.14
      9.65      -0.82      -0.09
      9.96      -0.77       0.18
      9.62      -0.86      -0.11
      9.74      -0.96       0.13
      9.73      -0.62       0.08
      9.47      -0.50       0.34
      9.79      -0.69      -0.18
     10.34      -1.11      -0.03
      9.87      -0.99      -0.14
      9.65      -0.75       0.03
      9.86      -0.90       0.29
     10.57      -0.97      -0.24
     10.62      -0.78      -0.39
