# vtk DataFile Version 3.0
Low resolution, disturbed wind of YZ Slice at time = 54 seconds.
ASCII
DATASET STRUCTURED_POINTS
DIMENSIONS     1    26    12
ORIGIN    1630.00     635.00      15.00
SPACING      30.00      30.00      30.00
POINT_DATA             312
VECTORS DisYZ float
      8.96       0.39      -0.59
      6.19       0.03       0.39
      5.55       0.45       0.66
      6.58       1.44      -0.37
      5.12       1.08      -0.03
      5.25       0.48      -0.10
      5.56       0.75      -0.60
      5.85       0.51       0.77
      5.72       1.76       0.28
      4.26       0.37       0.15
      4.20      -0.06      -0.05
      3.52       0.37       0.30
      4.55      -0.36       0.08
      5.12       0.49      -0.37
      4.43      -0.14      -0.16
      4.29       0.42      -0.39
      3.23       0.84       0.36
      5.46       0.83      -0.06
      5.34       0.53       0.38
      5.31      -0.06      -0.05
      4.28       0.23       0.47
      6.47      -0.66       0.06
      5.53       0.61       0.40
      6.43      -0.05      -0.15
      5.29       0.01       0.30
      7.06      -0.67      -0.02
      8.15       0.45      -0.36
      6.87       0.16      -0.32
      7.32       0.58       0.36
      8.50       0.86      -0.44
      5.85       0.97      -0.15
      6.55       0.84      -0.07
      6.27       0.23       0.49
      7.06      -0.67      -0.19
      7.26      -0.23      -0.11
      5.73      -0.07       0.42
      5.79       0.25       0.28
      6.24      -0.38       0.90
      6.72       0.34       0.57
      5.59       0.39      -0.10
      7.05      -0.35      -0.58
      6.84       0.57      -0.22
      6.26       0.35      -0.63
      6.46       0.34      -0.11
      7.15       0.18       0.27
      6.57       0.56       0.72
      6.10      -0.45       0.10
      8.55      -0.37      -0.02
      8.54      -0.30      -0.20
      8.16      -0.83      -0.20
      7.03       0.00      -0.34
      7.19       0.61      -0.22
      7.93       0.70      -0.07
      8.49       0.57       0.05
      8.69       1.00       0.46
      7.46       0.47       0.80
      7.22       0.56       0.41
      6.64       0.32       0.15
      7.37      -0.09       1.04
      7.53      -0.13      -0.11
      7.33      -0.83      -0.21
      6.85      -0.31       0.60
      7.73       0.08       0.27
      7.57      -0.04      -0.65
      6.64       0.27      -0.12
      6.35       0.85       0.25
      7.58      -0.30      -0.35
      7.71       0.12      -0.80
      6.56       0.35       0.07
      7.33       0.11      -0.57
      7.62       0.04       0.12
      6.92       0.10       0.36
      6.84      -0.01       0.68
      8.72      -0.57      -0.05
      7.75      -0.68       0.07
      8.82      -0.88      -0.18
      8.21      -0.68      -0.02
      8.97      -1.32       0.04
      8.41       0.38       0.38
      8.03       0.06      -0.33
      7.92       0.34      -0.05
      8.85       0.69       1.12
      7.13       0.47       0.02
      6.97       0.63       0.73
      7.17       0.97       0.00
      7.78       0.47       0.50
      7.72      -0.56       0.43
      7.90      -0.80      -0.32
      8.18      -0.85      -0.01
      8.00      -0.25      -0.05
      8.39      -0.13       0.37
      7.95       0.56       0.09
      8.05       0.64       0.05
      8.75       0.57      -0.34
      6.54      -0.13       0.53
      7.43       0.17      -0.34
      7.83      -0.18      -0.17
      7.88      -0.51       0.16
      8.73      -0.76       0.16
      9.17      -0.46      -0.29
      8.63      -0.39       0.11
      7.73      -0.00       0.63
      9.09      -0.09      -0.29
      8.56      -0.28       0.10
      9.12       0.39       0.49
      8.89       0.47       0.44
      8.91       0.56       0.21
      7.97      -0.10       0.13
      8.59      -0.24      -0.49
      7.91       0.30       0.35
      7.71      -0.14       0.11
      7.82      -0.19       0.11
      7.46      -0.00       1.14
      7.74       0.17       0.15
      7.48      -0.21      -0.36
      8.34       0.19      -0.08
      8.11      -0.04       0.16
      8.61      -0.20       0.23
      8.56       0.08       0.16
      8.19       0.24       0.19
      7.56       0.32       0.49
      8.02      -0.48       0.78
      8.09      -0.52       0.43
      8.50      -0.28       0.27
      8.49      -0.26       0.66
      8.75      -0.03      -0.28
      9.57       0.03      -0.23
      9.61       0.49       0.37
      9.15       0.29       0.27
      8.46       0.18       0.14
      8.05       0.11       0.73
      8.31      -0.01       0.42
      8.37       0.05       0.70
      8.52       0.07       0.50
      9.10       0.32      -0.39
      8.69       0.51       0.26
      8.31       0.01       0.20
      7.84      -0.16       0.39
      8.21      -0.03      -0.09
      8.12       0.49       0.08
      8.40      -0.29      -0.24
      9.13       0.15      -0.28
      8.73      -0.40      -0.10
      8.64      -0.23      -0.06
      8.62       0.01       0.09
      8.51      -0.04      -0.11
      7.96      -0.49      -0.19
      7.58      -0.08       0.81
      7.93      -0.17       0.26
      8.29      -0.07       0.13
      9.14       0.04       0.20
      9.55      -0.04      -0.05
      8.91       0.17      -0.17
      9.16       0.32       0.28
      8.73       0.57       0.16
      8.83       0.43      -0.01
      8.27      -0.13       0.35
      8.65      -0.03       0.22
      8.44       0.12       0.31
      8.89      -0.26       0.47
      8.99      -0.49      -0.35
      8.62      -0.78       0.42
      8.53      -0.51      -0.01
      8.33      -0.21       0.77
      8.90      -0.01      -0.15
      8.89      -0.13      -0.20
      9.49      -0.52      -0.49
     10.15      -0.33      -0.25
      9.05      -0.21       0.17
      9.06      -0.66       0.02
      9.28      -0.23      -0.10
      8.89       0.07      -0.04
      8.55       0.25       0.35
      7.89      -0.21       0.54
      7.86      -0.25       0.20
      8.67      -0.11       0.06
      9.53      -0.66      -0.05
      8.86      -0.38       0.00
      9.57      -0.27      -0.29
      8.98       0.39       0.19
      8.84       0.58       0.00
      9.01       0.16       0.12
      8.52       0.19       0.51
      8.86      -0.12      -0.38
      8.97      -0.25       0.01
      8.86       0.00       0.26
      9.57      -0.95      -0.32
      9.34      -0.68      -0.16
      9.85      -0.48      -0.41
      9.55      -0.13      -0.10
      9.75      -0.48      -0.66
      9.40      -0.24       0.04
      9.69      -0.37      -0.13
      9.70      -0.36       0.06
      9.01      -0.65       0.36
      8.92      -0.77       0.06
      9.42      -0.50      -0.05
     10.12      -0.08       0.06
      9.34      -0.06       0.39
      8.23      -0.21       0.66
      8.35      -0.31       0.40
      8.99      -0.14       0.21
      9.08      -0.39       0.25
      9.53      -0.22      -0.26
      9.20      -0.25       0.49
      8.73      -0.40       0.17
      9.18      -0.27       0.06
      9.39      -0.29       0.04
      8.51       0.04       0.31
      8.85      -0.15      -0.01
      9.19      -0.80      -0.01
      8.90      -0.52       0.21
      9.14      -0.57       0.10
      9.53      -0.61      -0.27
      9.58      -0.81      -0.38
     10.05      -0.89      -0.34
      9.35      -0.95      -0.43
      9.91      -0.58       0.34
      9.16      -0.63       0.26
      8.64      -0.85       0.45
      9.29      -0.85       0.41
      9.32      -0.84       0.68
     10.21      -0.42       0.39
      8.93      -0.19       0.55
      8.98       0.07       0.64
      8.54      -0.05       1.07
      8.57      -0.12       0.40
      9.65      -0.62      -0.01
      9.82      -0.78      -0.08
      8.86      -0.47      -0.31
      8.94      -0.33       0.55
      9.27      -0.06      -0.05
      9.34      -0.13      -0.33
      9.66      -0.38      -0.36
      8.89      -0.03      -0.06
      9.22       0.02       0.54
      9.04      -0.41       0.40
      9.06      -0.62       0.27
      9.04      -0.65       0.09
      9.40      -0.54      -0.12
      9.84      -0.42      -0.15
      9.66      -0.68      -0.22
      9.53      -1.15      -0.19
      9.65      -1.21       0.25
      9.31      -1.21       0.25
      9.25      -1.33       0.71
      9.50      -0.72       0.40
      9.52      -0.51       0.78
      9.64      -0.88       0.51
      9.13      -0.76       0.31
      8.79      -0.64       0.68
      8.54      -0.58       0.98
      9.08      -0.19       0.12
     10.18      -0.30       0.01
     10.04      -0.29      -0.24
      9.41      -0.43      -0.14
      8.88      -0.27       0.25
      9.45      -0.32      -0.07
      9.97      -0.42      -0.37
     10.31      -0.43      -0.39
      9.18      -0.31      -0.06
      9.25      -0.76       0.47
      9.06      -0.54      -0.51
      9.03      -0.40      -0.14
      9.17      -0.36      -0.18
      9.48      -0.39       0.08
      9.59      -0.57      -0.20
      9.89      -1.00       0.27
      9.17      -1.56       0.60
      9.74      -1.12       0.35
     10.46      -0.85       0.12
      9.76      -0.98       0.18
      9.52      -1.20      -0.21
      9.68      -0.98       0.21
      9.46      -0.71       0.14
      9.59      -0.54       0.15
      9.75      -0.50       0.40
      9.48      -0.13       0.65
      9.46      -0.22       0.28
     10.29      -0.87      -0.32
      9.87      -0.82      -0.12
      9.26      -0.36       0.25
      9.46      -0.42       0.31
      9.84      -0.63       0.01
     10.05      -0.84      -0.14
     10.59      -0.56      -0.17
      9.26      -0.72       0.45
      8.87      -0.78      -0.09
      9.17      -0.81      -0.29
      9.23      -0.81       0.10
      9.04      -0.47       0.28
      9.45      -0.35       0.02
      9.62      -0.69       0.15
     10.07      -1.23       0.24
      9.76      -0.97       0.51
      9.60      -1.12       0.02
      9.82      -0.93       0.30
      9.60      -0.94       0.32
      9.98      -0.84      -0.15
      9.87      -0.81       0.05
      9.55      -0.73       0.14
     10.07      -0.83      -0.08
      9.91      -0.97       0.41
      9.81      -0.93       0.18
      9.66      -0.84       0.32
      9.69      -1.08      -0.12
      9.53      -0.99      -0.03
      9.74      -0.66       0.20
      9.79      -0.54       0.46
      9.79      -0.76       0.09
     10.05      -0.64      -0.11
     10.65      -0.76      -0.29
