# vtk DataFile Version 3.0
Low resolution, disturbed wind of YZ Slice at time = 30 seconds.
ASCII
DATASET STRUCTURED_POINTS
DIMENSIONS     1    26    12
ORIGIN     748.00     635.00      15.00
SPACING      30.00      30.00      30.00
POINT_DATA             312
VECTORS DisYZ float
      4.62       0.02       0.57
      7.20      -0.32      -0.58
      7.66       0.67      -0.29
      5.32       0.42       0.40
      4.09       0.01       0.10
      4.14      -0.08       0.89
      7.08       0.44      -0.85
      6.30       1.44       0.02
      5.92       0.26       0.06
      4.14       0.89       0.48
      3.52       0.33       0.44
      4.57      -0.59       0.04
      4.69      -0.70      -0.08
      3.96       0.38       0.87
      3.88      -0.35       0.09
      3.30       0.00       0.26
      4.78       0.45      -0.25
      4.47       0.19      -0.07
      3.95       0.21       0.33
      5.29       0.29      -0.20
      5.55       0.01       0.34
      5.61      -0.05       0.09
      5.50       0.24      -0.11
      6.27       0.07      -0.12
      7.69      -0.12      -0.71
      5.96       0.52       0.63
      6.63       0.96       0.15
      9.15       0.65      -0.62
      7.37       0.45       0.66
      6.35      -0.10       0.14
      4.84       0.11       0.90
      6.51       0.57       0.41
      6.83       0.38       0.20
      7.08      -0.12      -0.07
      6.21       0.70       0.31
      7.78       0.93      -0.18
      7.58       0.34      -0.36
      7.37       1.08       0.19
      5.83       0.18      -0.01
      5.29       0.01       0.65
      5.87       0.08      -0.07
      5.84       0.26       0.29
      5.72      -0.30      -0.09
      7.00      -0.61      -0.39
      7.40      -1.44       0.25
      7.45       0.24      -0.09
      7.42      -0.45       0.87
      5.67       0.29       0.95
      8.15       0.43      -0.68
      7.88       0.20      -0.75
      8.25       0.95      -0.15
      7.97       1.34      -0.09
      9.08       0.48       0.17
      8.29       0.58      -0.04
      7.87       0.82       0.18
      6.49       0.12       1.15
      6.13       0.45       0.23
      6.97       0.49       0.12
      6.80       0.33       0.27
      7.69       0.43      -0.43
      8.21       0.01       0.25
      8.48       0.32      -0.38
      8.30       0.63      -0.46
      6.81       0.10      -0.02
      6.40       0.19       0.31
      6.74      -0.05       0.37
      6.40      -0.40       0.03
      7.02      -0.89       0.23
      7.51      -0.96       0.59
      7.96      -0.34      -0.53
      8.02      -0.66       0.21
      8.86      -0.69      -0.15
      8.14      -1.03       0.72
      7.77      -0.66       0.67
      9.21       0.38      -0.76
      8.85       0.76      -0.30
      8.37       0.74      -0.05
      8.32       1.18       0.13
      9.01       0.19      -0.09
      8.18      -0.19      -0.06
      7.03      -0.27       0.46
      7.79      -0.62       0.22
      8.37       0.12      -0.34
      7.97      -0.04      -0.32
      7.66      -0.16       0.01
      8.36      -0.41      -0.27
      8.33       0.10      -0.08
      8.97       0.02       0.07
      8.16      -0.05      -0.19
      7.41      -0.11      -0.33
      7.73       0.12       0.31
      7.12       0.26       0.55
      6.77       0.33       0.29
      8.06      -0.81       0.70
      8.38      -0.28       0.16
      8.79       0.02      -0.53
      8.65       0.48      -0.32
      8.75       0.14       0.39
      8.19      -0.13       0.40
      9.07       0.27      -0.04
      9.94       0.44      -0.78
      9.74      -0.19      -0.58
      9.61       0.41      -0.23
      9.23       0.43       0.08
      8.42      -0.32       0.03
      8.37      -0.17       0.04
      7.85      -0.80       0.33
      8.26      -0.44       0.48
      8.17      -0.11       0.06
      7.92      -0.09       0.24
      8.22      -0.22      -0.35
      8.48      -0.33       0.16
      8.64      -0.63      -0.02
      8.94      -0.05      -0.08
      8.21       0.30      -0.22
      7.36       0.22       0.06
      7.02       0.20       0.60
      7.50      -0.06       0.18
      6.54      -0.12       0.66
      7.98      -0.23       1.49
      8.87       0.00      -0.27
      9.10       0.44      -0.88
      8.99       0.40      -0.03
      8.51       0.45       0.44
      8.74       0.36       0.28
     10.13       0.00      -0.43
      9.73      -0.07      -0.38
      9.32       0.18      -0.18
      9.72       0.49      -0.37
      8.56       0.19      -0.32
      8.14       0.17      -0.08
      8.17       0.16       0.07
      8.39      -0.26       0.59
      8.13      -0.06       0.48
      8.42      -0.18       0.24
      8.30      -0.45       0.16
      8.22      -0.02      -0.01
      8.73       0.37      -0.03
      8.41       0.39       0.36
      8.90      -0.34      -0.08
      8.69       0.12      -0.12
      7.48      -0.15       0.66
      7.23       0.14       1.02
      7.93      -0.24       1.24
      7.34      -0.58       0.96
      7.29       0.10       1.11
      9.12       0.24      -0.01
      9.49      -1.13      -0.11
      9.65      -1.35      -0.20
      9.13      -0.51       0.25
      9.37      -0.19       0.17
      9.61      -0.08      -0.52
      9.63      -0.07      -0.53
      9.22       0.08      -0.36
      8.96      -0.03      -0.20
      8.32       0.30      -0.13
      8.50      -0.24       0.22
      8.37      -0.30       0.05
      8.25      -0.21       0.69
      8.14      -0.59       0.53
      8.22      -0.21       0.53
      8.32      -0.11       0.42
      9.45      -0.70       0.02
      8.34      -0.72      -0.43
      8.16      -0.33       0.08
      8.72      -0.09       0.04
      8.57      -0.01      -0.32
      8.37       0.22       0.12
      8.48       0.48       0.68
      8.14      -0.50       1.33
      8.56      -0.64       0.73
      9.64      -1.49       1.00
      9.67      -0.92      -0.02
      8.97      -0.79      -0.42
      9.12      -0.57       0.00
      8.87      -0.29       0.25
      9.66      -0.51      -0.54
      9.83      -0.63      -0.67
      9.64      -0.48      -0.64
      8.95      -0.21      -0.44
      8.73      -0.07       0.27
      8.46      -0.16      -0.08
      8.36      -0.45       0.17
      7.54      -0.28       0.22
      8.78      -0.36       0.57
      7.80      -0.30       0.51
      8.24      -0.09       0.53
      9.01      -0.78      -0.04
      9.10      -0.74       0.49
      9.47      -0.91       0.08
      9.04      -0.51       0.13
      8.99      -0.06       0.13
      8.88      -0.32       0.14
      8.75      -1.05       0.04
      8.99      -1.74       0.15
      8.94      -1.57       1.72
      9.52      -1.75       0.02
      9.77      -1.51      -0.04
      9.03      -1.25       0.21
      9.13      -1.17      -0.13
      9.34      -0.92      -0.06
      9.47      -0.77       0.07
      9.57      -0.72       0.15
     10.01      -0.49      -0.98
      9.73      -0.43      -0.34
     10.38      -0.29      -0.32
     10.02      -0.18      -0.62
      9.24      -0.33      -0.42
      8.04      -0.15       0.47
      8.66      -0.39      -0.16
      8.43      -0.43       0.27
      7.75      -0.16       0.43
      8.67      -0.19      -0.07
      8.26       0.12       0.70
      9.04      -0.59       0.05
      9.28      -0.66       0.45
      9.56      -0.58       0.17
      8.95      -0.32       0.26
      8.84      -0.52       0.38
      9.29      -0.62       0.29
      8.86      -1.23       0.47
      8.90      -1.15       0.87
      9.09      -0.72       0.35
      9.28      -0.69      -0.07
      9.37      -0.76       0.19
      9.95      -0.03      -0.36
      9.57      -0.19      -0.36
      9.46      -0.41      -0.41
      9.51      -0.20      -0.35
      9.89      -0.02      -0.80
     10.24       0.01      -0.71
     10.82      -0.28      -0.82
      9.65      -0.03       0.05
      9.87      -0.41      -0.14
      8.58       0.19       0.49
      8.93       0.12      -0.11
      9.46      -0.20       0.15
      9.47       0.05      -0.05
      9.38       0.10       0.09
      8.51       0.13       0.76
      9.27      -0.34       0.22
      9.61      -0.50       0.29
      9.79      -0.75       0.19
      9.59      -0.53       0.22
      9.26      -0.30       0.09
      9.46      -0.26       0.29
      9.00      -0.29       0.44
      8.86       0.09       0.54
      9.25       0.32       0.36
      9.70      -0.15      -0.06
      9.54      -0.06      -0.42
      9.61      -0.27      -0.44
      9.56       0.09      -0.36
      9.55       0.02      -0.78
     10.01       0.09      -0.65
      9.83       0.07      -0.73
      9.86       0.04      -0.62
     10.44      -0.11      -0.41
     10.38      -0.54      -0.16
      9.96      -0.19      -0.11
      9.88      -0.19      -0.28
      9.72      -0.24       0.15
     10.32      -0.38      -0.05
     10.44      -0.60      -0.26
      9.60      -0.44       0.18
      9.51      -0.25       0.50
      9.30      -0.34       0.75
      9.37      -0.38       0.66
      9.53      -0.62       0.02
     10.00      -0.45      -0.20
      9.69      -0.65      -0.03
      9.22      -0.28       0.53
      9.70      -0.25       0.43
      9.53      -0.05       0.14
      9.15       0.10       0.30
      9.70       0.30      -0.20
      9.63      -0.08       0.21
      9.44      -0.15      -0.63
      9.75       0.07      -0.54
      9.66      -0.19      -0.64
      9.83      -0.06      -0.59
      9.97      -0.16      -0.59
     10.20      -0.01       0.03
     10.57      -0.44      -0.57
     10.35      -0.56      -0.15
     10.10      -0.55       0.00
     10.24      -0.70      -0.18
      9.93      -0.54      -0.31
     10.37      -0.61      -0.17
     10.29      -0.61      -0.53
     10.02      -0.53       0.36
      9.61      -0.95       0.40
      9.33      -0.63       0.79
      9.67      -0.34       0.50
      9.50      -0.12      -0.08
      9.81      -0.35       0.10
      9.59      -0.54       0.10
      9.25      -0.71       0.48
      9.24      -0.53       0.26
      9.92       0.02       0.16
      9.65      -0.15       0.17
      9.32      -0.13      -0.01
      9.49      -0.14      -0.34
      9.38       0.11      -0.95
      9.89      -0.11      -0.59
      9.85      -0.21      -0.64
     10.23      -0.17      -0.45
     10.20      -0.12      -0.54
     10.01      -0.49      -0.07
     10.46      -0.61      -0.13
     10.21      -0.75      -0.15
     10.51      -0.75      -0.22
