# vtk DataFile Version 3.0
Low resolution, disturbed wind of YZ Slice at time = 18 seconds.
ASCII
DATASET STRUCTURED_POINTS
DIMENSIONS     1    26    12
ORIGIN    2008.00     635.00      15.00
SPACING      30.00      30.00      30.00
POINT_DATA             312
VECTORS DisYZ float
      7.85       1.30      -0.58
      6.10       1.08      -0.16
      4.70      -0.32       0.01
      5.60       0.19      -0.01
      4.68      -0.24       0.03
      5.82      -0.46       0.79
      6.16       0.10      -0.46
      5.69       0.76       1.10
      4.10       1.11      -0.31
      5.25       0.34      -0.28
      4.56       0.02       0.30
      5.42       0.63       0.17
      5.70       0.20      -0.06
      4.68       0.42       0.22
      5.11      -0.19      -0.21
      4.77      -0.52      -0.14
      5.80       0.40      -0.16
      5.89       0.62      -0.10
      4.55      -0.09       0.25
      6.76      -0.03      -0.09
      7.21      -0.40      -0.01
      5.58       0.03       0.00
      5.28      -0.48       0.38
      6.54      -0.99      -0.20
      6.66       1.22      -0.20
      6.29       0.16       0.13
      6.22      -0.00      -0.05
      5.89       0.49       0.27
      7.35       0.07      -0.64
      7.72       0.45      -0.40
      6.37      -0.32       0.42
      6.30      -0.35       0.47
      6.91      -0.42       0.37
      7.33      -0.04      -0.21
      6.62       0.35       0.20
      6.62       0.56      -0.03
      7.03       0.58      -0.09
      7.17       0.44      -0.51
      6.74       0.67      -0.01
      5.34       0.17       0.08
      6.77       0.70      -0.22
      6.24      -0.11       0.28
      5.88       0.02       0.35
      6.95      -0.53      -0.12
      6.59      -0.45       0.20
      7.30       0.14       0.11
      7.18      -0.02      -0.21
      8.18      -0.41      -0.36
      7.67       0.43      -0.01
      7.36       0.28      -0.03
      8.14      -0.06      -0.40
      8.30      -0.42      -0.66
      7.96       1.02       0.18
      7.33       1.06       0.53
      8.03       1.61       0.01
      7.14       0.44       0.05
      6.37       0.97       0.50
      6.71       0.68       0.51
      7.34       0.19       0.57
      7.95      -0.01      -0.27
      8.72       0.19      -0.54
      7.40      -0.14      -0.47
      7.80      -0.52      -0.18
      8.25      -0.11      -0.95
      6.85       0.16      -0.21
      6.83       0.48      -0.10
      7.05       0.84       0.01
      6.74      -0.05       0.33
      6.67       0.07       0.21
      7.60       0.06      -0.13
      7.90       0.26      -0.10
      7.45      -0.22      -0.01
      8.63      -0.75       0.08
      8.35       0.13      -0.26
      8.04       0.13      -0.68
      8.05       0.16      -0.60
      8.41       0.39      -0.43
      7.98      -0.62       0.19
      7.96       0.80       0.24
      7.70       0.52      -0.21
      7.38       0.56       0.41
      6.65       0.02       0.23
      6.80       0.49       0.76
      7.39       0.28       0.40
      7.75       0.55      -0.12
      7.97       0.61      -0.31
      8.44       0.21      -0.44
      7.71      -0.54      -0.02
      8.40      -0.65      -0.60
      8.45      -0.11      -0.61
      7.94       0.46       0.32
      7.42       0.46       0.78
      7.73       0.05       0.22
      6.93       0.39       0.65
      7.48      -0.04      -0.38
      8.04      -0.10       0.01
      7.89      -0.38       0.36
      7.74      -0.03       0.03
      8.87      -0.30       0.00
      9.08      -0.53      -0.40
      8.79      -0.38      -0.53
      8.92      -0.23      -0.18
      8.34      -0.55      -0.03
      8.47      -0.63       0.25
      7.59       0.00       0.17
      8.06      -0.03       0.03
      8.34      -0.44      -0.34
      8.05       0.11      -0.15
      7.95       1.13       0.64
      7.66       1.16       0.27
      7.54       0.64      -0.41
      8.17       0.27       0.07
      8.18      -0.08       0.24
      8.32      -0.27      -0.15
      8.60      -0.27      -0.20
      8.52      -0.53      -0.44
      7.55      -0.06       0.34
      7.68      -0.22       0.97
      8.32      -0.02      -0.09
      7.38       0.04       0.57
      8.10      -0.05      -0.10
      8.12      -0.17       0.06
      7.83      -0.05       0.49
      8.48      -0.32      -0.04
      8.84      -0.62      -0.10
      9.00      -0.91      -0.56
      9.12      -0.30      -0.64
      8.80      -0.26      -0.22
      9.04      -0.28       0.09
      8.63       0.12       0.17
      8.04      -0.17       0.19
      8.57      -0.04      -0.03
      8.25       0.27      -0.42
      8.64       0.16      -0.24
      7.80       0.45       0.61
      7.56       0.60       0.35
      8.03       0.10       0.04
      8.60      -0.25       0.14
      8.76      -0.12       0.02
      8.56       0.07      -0.01
      8.88       0.17       0.13
      8.71      -0.04       0.07
      7.99      -0.15       0.58
      8.17      -0.23       0.73
      8.63      -0.22       0.43
      8.23       0.30       0.28
      8.43       0.24      -0.00
      8.68       0.06      -0.01
      8.79      -0.50       0.05
      8.84      -0.40       0.07
      8.55      -0.54       0.14
      9.05      -0.42      -0.14
      8.91      -0.39      -0.39
      9.07       0.09      -0.31
      8.97       0.01       0.17
      8.89       0.32      -0.10
      7.91      -0.45       0.15
      7.93      -0.35       0.19
      8.15      -0.08       0.01
      8.09      -0.27      -0.10
      7.29      -0.09       0.35
      7.44       0.22       0.72
      8.72      -0.21       0.12
      8.81      -0.21       0.14
      8.89      -0.01      -0.04
      8.67       0.25       0.31
      9.44       0.13       0.12
      9.45       0.10       0.16
      9.41       0.19       0.41
      9.18       0.10       0.59
      9.16      -0.01       0.51
      9.19       0.17       0.28
      9.14       0.15       0.13
      8.71       0.22       0.07
      8.85       0.05      -0.18
      8.98      -0.57      -0.01
      8.98      -0.53       0.10
      9.16      -0.27      -0.51
      9.34      -0.16      -0.76
      9.39      -0.31      -0.02
      9.20      -0.13      -0.35
      9.41       0.10      -0.34
      8.88      -0.19       0.19
      8.72      -0.50       0.42
      8.68      -0.26       0.42
      8.54      -0.49       0.28
      8.50      -0.80       0.33
      9.13      -0.42       0.49
      9.48      -0.31      -0.00
      9.64       0.06      -0.13
      9.18       0.08      -0.16
      9.54      -0.03      -0.17
      9.80      -0.13       0.10
      9.66       0.29       0.32
      9.95       0.21       0.36
      9.97      -0.12       0.61
      9.61      -0.23       0.46
      9.63      -0.18       0.42
      9.81       0.27      -0.16
      9.33      -0.04       0.02
      9.18      -0.13      -0.11
      9.46      -0.59       0.17
      9.63      -0.53      -0.27
      9.63      -0.77      -0.19
      9.42      -0.91      -0.37
      9.76      -1.11      -0.12
      9.27      -0.72      -0.27
      9.73      -0.58      -0.11
      9.18      -0.80       0.40
      9.44      -1.11       0.44
      9.42      -0.69       0.35
      8.86      -0.40       0.34
      9.64      -0.42       0.34
      8.76      -0.27       0.33
      9.36      -0.42       0.17
      9.27      -0.63       0.08
      9.77      -0.99      -0.10
      9.72      -1.03      -0.17
      9.54      -0.96      -0.20
     10.00      -0.98      -0.00
      9.84      -0.77       0.06
      9.51      -0.43       0.50
      9.85      -0.61       0.42
      9.56      -0.58      -0.01
      9.32      -0.58      -0.03
      9.39      -0.81      -0.07
      9.81      -1.25       0.15
      9.35      -1.49       0.36
      9.27      -1.31      -0.27
      9.89      -0.93      -0.25
      9.53      -0.90      -0.15
      9.28      -0.67      -0.53
      9.79      -0.67      -0.41
      9.41      -0.75      -0.27
      9.24      -0.60       0.10
      9.23      -0.61       0.45
      9.44      -0.61      -0.13
      9.42      -0.52       0.14
      9.62      -0.19       0.01
      9.29      -0.35       0.25
      9.57      -0.99      -0.06
      9.23      -0.74       0.04
      9.57      -0.66       0.01
      9.75      -0.77       0.06
      9.97      -1.03       0.03
     10.13      -0.91      -0.00
     10.24      -0.90      -0.24
     10.34      -0.72      -0.00
      9.94      -0.56       0.26
      9.72      -0.65       0.07
      9.34      -1.02      -0.15
      9.48      -1.13       0.44
      9.69      -1.27       0.48
      8.88      -1.21       0.15
      9.74      -1.33      -0.11
     10.35      -0.87      -0.45
     10.07      -0.48      -0.42
     10.09      -0.81      -0.23
      9.92      -1.17      -0.66
      9.94      -1.00      -0.37
      9.41      -0.68       0.02
      9.52      -0.69       0.17
      9.28      -0.78       0.00
     10.16      -0.66      -0.08
      9.31      -0.63       0.09
      9.64      -1.02       0.41
      9.54      -1.07       0.51
     10.01      -0.73       0.02
     10.08      -0.68       0.01
     10.21      -0.97      -0.28
     10.06      -1.16       0.18
     10.27      -0.94      -0.02
      9.89      -0.93      -0.02
      9.63      -0.77       0.18
     10.21      -0.68       0.24
      9.87      -0.51       0.25
      9.72      -0.92       0.20
      9.54      -1.01       0.52
      9.46      -0.93       0.44
      9.02      -1.07       0.40
      9.38      -1.21      -0.09
      9.66      -0.75      -0.51
     10.40      -0.94      -0.21
      9.76      -1.31      -0.16
      9.86      -1.10      -0.48
      9.75      -1.24      -0.20
      9.55      -0.33       0.06
      9.42      -0.60       0.41
      9.38      -0.76       0.15
     10.20      -0.52       0.04
     10.11      -0.28       0.11
      9.24      -0.32       0.27
     10.02      -0.31      -0.28
     10.09      -0.58      -0.11
      9.81      -0.73       0.29
     10.20      -0.77      -0.04
     10.21      -0.90       0.17
     10.04      -0.71       0.17
      9.98      -0.92       0.03
      9.73      -0.92       0.26
      9.66      -0.98      -0.05
      9.66      -0.87       0.35
      9.85      -0.68       0.10
      9.76      -0.67      -0.03
      9.75      -0.55       0.06
      9.31      -0.63       0.59
      9.57      -0.58      -0.47
     10.03      -0.84      -0.32
     10.51      -1.11      -0.39
     10.44      -1.10      -0.79
      9.42      -1.19      -0.37
     10.27      -0.83      -0.43
