# vtk DataFile Version 3.0
Low resolution, disturbed wind of XZ Slice at time = 42 seconds.
ASCII
DATASET STRUCTURED_POINTS
DIMENSIONS    47     1    12
ORIGIN     635.00    1000.00      15.00
SPACING      30.00      30.00      30.00
POINT_DATA             564
VECTORS DisXZ float
      5.15       0.40      -0.25
      5.91       1.38      -0.09
      4.95       0.22      -0.49
      4.17       0.85       0.25
      4.77      -0.40       0.30
      4.74      -0.65       0.43
      4.49      -0.56      -0.27
      4.19       0.17      -0.16
      4.47      -0.05       0.05
      5.23       0.32       0.37
      5.32      -0.17      -0.05
      5.38       0.08      -0.58
      3.42       0.71      -0.02
      3.33      -0.20       0.27
      3.75       0.57       0.80
      4.59       0.26       0.74
      5.35       0.76       0.07
      5.95       0.05      -0.53
      5.79      -0.21       0.10
      5.75      -0.37      -0.13
      3.30       0.89       1.08
      3.31      -0.56       0.81
      5.28       1.18       0.38
      5.64      -0.88       0.16
      4.29      -0.57       0.33
      5.02      -0.76      -0.85
      4.33      -0.24       0.72
      5.85       0.38      -0.22
      5.30       0.65      -0.53
      4.75       1.43       0.04
      4.39       0.82       0.30
      4.92      -0.38      -0.14
      4.33       0.69      -0.46
      4.94       0.79      -0.42
      4.31      -0.60       0.02
      4.43      -0.31      -0.17
      4.73       0.45      -0.16
      4.43       0.42       0.27
      5.21       0.12       0.06
      5.84       0.09      -0.22
      5.42       0.93      -0.43
      5.75       0.16       0.51
      6.09       0.50      -0.61
      5.13       0.01      -0.58
      4.90       0.44       0.59
      5.43       0.07      -0.23
      4.63       0.30       0.06
      5.25      -1.04       0.33
      5.07      -0.53       0.31
      5.17       0.10      -0.00
      5.11       0.31       0.54
      6.21      -0.51      -0.09
      5.82      -0.35       0.17
      5.97      -0.24      -0.20
      5.83       0.50       0.27
      5.86       0.61       0.39
      5.62      -0.10       0.21
      6.29       0.32       0.20
      6.65       0.55      -0.09
      2.22       0.64       0.16
      2.02      -0.51       0.66
      1.89      -0.07       0.38
      3.02      -0.12       0.32
      3.48      -0.13       0.56
      3.65      -0.11       0.12
      3.63       0.09       0.12
      4.38      -0.47       0.27
      4.16      -0.72       0.52
      3.17       0.96       0.81
      5.90      -0.62       0.26
      6.30      -0.82       0.16
      6.31      -0.21       1.31
      6.88      -0.58       0.17
      7.25      -1.03       0.21
      6.02      -0.54       0.78
      6.34       0.43      -0.38
      6.46       0.11      -0.85
      6.08       1.54       0.84
      6.87       0.56      -0.11
      6.30       0.33       0.10
      6.10       0.07      -0.12
      6.55       0.17       0.00
      6.14       0.67       0.55
      6.63       0.77       0.08
      6.05       0.55       0.17
      5.74       0.17      -0.07
      6.61       0.35      -0.63
      5.84       0.36       0.43
      7.01       0.17       0.37
      7.26       0.26      -0.51
      6.89       0.49      -0.38
      7.43       0.74       0.17
      6.32       0.16       0.51
      6.38       0.11      -0.31
      6.51      -0.48       0.28
      6.43       0.21       0.41
      7.23      -0.25       0.50
      6.55      -0.10       0.69
      7.57       0.27       0.03
      6.53      -0.15       0.33
      6.56       0.38       0.23
      6.61       0.16       0.26
      6.67       0.13       0.27
      6.99       0.38       0.04
      6.46       0.01      -0.21
      6.37       0.02       0.11
      3.19      -0.11       0.91
      3.64      -0.29       0.38
      3.32       0.07       0.35
      3.48      -0.17       0.15
      3.82      -0.06       0.38
      3.55      -0.27       0.52
      3.68       0.01       0.90
      3.78       0.16       0.57
      3.80       0.15       0.50
      4.20      -0.37       0.67
      7.74      -0.39       0.14
      7.41      -0.05       0.47
      7.64       0.09       0.40
      7.08      -0.37       0.29
      6.94      -0.30       0.43
      7.78      -0.28       0.19
      7.97      -0.20       0.22
      7.17      -0.23      -0.32
      6.40       0.17       0.48
      6.45       0.02       0.42
      6.80      -0.48       0.22
      7.31      -0.14      -0.15
      6.69      -0.25       0.10
      7.84       0.02      -0.06
      7.46       0.50      -0.48
      7.19       0.17      -0.36
      6.75       0.63       0.08
      6.79       0.08       0.14
      6.66      -1.62      -0.30
      7.37      -1.89       0.08
      7.49      -0.09      -0.58
      6.54       0.77       0.39
      6.75       0.38      -0.10
      7.13       0.41       0.00
      6.93       0.39      -0.31
      7.66      -0.34       0.49
      7.51      -0.18       0.35
      7.29      -1.17       0.03
      6.97      -1.19       0.35
      7.14       0.33       0.69
      7.71      -0.23       0.34
      7.85      -0.05       0.18
      7.63       0.17       0.49
      7.34       0.34       0.23
      6.62       0.12       0.43
      7.11       0.50       0.51
      6.37      -0.55       0.56
      6.86      -0.79       0.39
      4.13      -0.79       0.57
      4.57      -1.01      -0.09
      4.73      -0.57       0.16
      4.40      -0.34       0.94
      4.24      -0.06       0.67
      4.27       0.14       0.81
      4.86       0.16       0.52
      4.17       0.05       0.83
      4.71       0.62       0.10
      7.84       1.24      -0.06
      7.73       1.25       0.03
      7.91       0.68       0.35
      8.08       0.14       0.29
      8.24      -0.06       0.20
      8.04       0.04       0.32
      8.48      -0.18      -0.11
      8.58       0.05      -0.31
      7.93       0.22       0.42
      7.77       0.41       0.20
      7.40       0.80       0.47
      7.85      -0.36       0.09
      8.26       0.12      -0.10
      7.78      -0.13      -0.19
      7.29       0.79       0.49
      7.52       0.61      -0.41
      7.96       0.35       0.12
      7.25       0.04      -0.09
      7.97      -0.52      -0.31
      7.92      -0.32      -0.19
      7.90      -0.28      -0.15
      7.61      -0.12      -0.04
      7.95      -0.40       0.25
      8.01      -0.71      -0.07
      8.09      -0.18      -0.68
      9.42      -0.84       0.05
      8.43      -0.74       0.37
      7.94      -0.79       0.28
      7.57      -1.09       0.23
      7.19      -1.39       0.69
      7.22      -0.80       0.44
      7.45       0.33       0.33
      6.79       0.07       0.43
      6.20      -0.35       0.59
      6.44      -0.06       0.28
      7.06       0.18      -0.27
      7.50      -0.03      -0.05
      7.37      -0.05       0.19
      3.11      -0.33       0.62
      3.16      -0.42       0.48
      3.46      -1.03       0.52
      3.57      -0.82       0.73
      3.96      -0.51       0.86
      3.68      -0.32       0.80
      3.94      -0.09       0.81
      4.52      -0.06       0.67
      4.65       0.06       0.51
      8.00       0.16      -0.21
      7.87       0.72       0.13
      7.95       0.96       0.30
      8.18       0.55       0.23
      8.27       0.72       0.58
      8.81       0.19       0.54
      8.55      -0.24      -0.11
      8.62       0.01       0.07
      8.16       0.11       0.09
      8.42      -0.04       0.27
      8.35       0.17      -0.01
      8.42       0.06      -0.05
      8.85      -0.29      -0.70
      8.74      -0.01       0.18
      8.26      -0.25       0.06
      8.21       0.48       0.04
      7.86      -0.52       0.59
      7.90      -0.50       0.43
      8.33      -1.01      -0.04
      8.02      -1.04      -0.20
      8.51      -0.48       0.41
      8.78      -0.42       0.08
      8.87      -0.43       0.19
      8.59      -0.55      -0.00
      8.35      -0.58      -0.13
      8.71      -0.22       0.08
      8.50       0.14       0.06
      8.95      -0.49      -0.30
      8.30      -1.28       0.37
      7.96      -1.05       0.96
      7.86      -0.73       0.64
      7.69      -0.55       0.72
      7.25       0.03       1.26
      7.62       0.79       0.31
      7.70       0.58      -0.44
      7.69       0.03      -0.63
      8.15       0.71      -0.56
      7.37       0.01      -0.05
      5.57       0.17      -0.18
      5.92      -0.03       0.05
      5.49      -0.46       0.31
      5.72      -0.43       0.50
      6.45      -0.11       0.48
      6.59      -0.08       0.61
      6.67       0.33       0.29
      6.63       0.04       0.19
      6.67      -0.25       0.42
      7.14      -0.58       0.22
      8.51      -0.54      -0.03
      8.33       0.29      -0.06
      8.15       1.03       0.39
      8.23       0.80       0.66
      8.47       0.13       0.32
      8.66      -0.17       0.05
      8.62      -0.33       0.03
      8.98      -0.09      -0.03
      9.16       0.05       0.06
      8.87       0.29      -0.15
      8.84       0.46      -0.34
      8.70       0.31      -0.01
      8.27      -0.04       0.32
      8.08      -0.02       0.19
      8.05       0.20       0.39
      8.16       0.14       0.38
      7.74       0.32       0.22
      7.71      -0.23       0.20
      8.16      -0.60      -0.15
      8.37      -0.79       0.29
      8.38      -0.37       0.19
      8.42      -0.38       0.01
      8.60      -0.94       0.01
      8.62      -0.75      -0.15
      9.00      -0.08       0.47
      9.50       0.31      -0.20
      8.66      -0.27      -0.26
      7.92      -0.61       0.14
      8.14      -1.20       0.95
      8.05      -0.81       0.85
      7.73      -0.66       0.80
      8.43       0.23       0.71
      8.52       0.26       0.05
      8.46      -0.17      -0.63
      9.02      -0.67      -1.10
      8.35       0.24      -0.55
      8.40       0.04       0.12
      7.90      -0.30       0.13
      8.11       0.13       0.36
      8.18      -0.11       0.19
      8.26      -0.21       0.27
      8.67      -0.39       0.08
      8.40      -1.04      -0.06
      8.55      -0.83       0.03
      8.60      -0.06       0.42
      8.29       0.30       0.45
      8.55       0.23       0.08
      8.92       0.17       0.19
      8.82       0.32       0.34
      9.51       0.52      -0.00
      8.74       0.83       0.52
      8.97       0.58       0.72
      9.12      -0.12       0.20
      9.24      -0.30      -0.01
      9.13      -0.34       0.09
      9.10      -0.31       0.31
      8.72      -0.27       0.13
      9.12      -0.58      -0.36
      9.26      -0.03      -0.31
      8.59       0.08       0.65
      8.41      -0.28       0.45
      8.43       0.03       0.18
      8.96       0.24       0.18
      8.82       0.24       0.18
      8.32       0.09       0.28
      8.63      -0.47      -0.47
      8.75      -0.56      -0.09
      9.08      -0.80       0.18
      9.28      -0.54       0.04
      9.04      -0.69       0.02
      9.24      -0.90       0.02
      9.20      -0.17       0.03
      9.30       0.18      -0.07
      8.96      -0.34       0.02
      8.74      -0.56       0.32
      8.49      -0.97       0.88
      8.11      -1.33       1.01
      8.23      -1.13       1.46
      9.30      -1.01       1.31
      8.75      -1.52       0.74
      9.73      -1.54      -1.00
      8.71      -0.17      -0.46
      8.54       0.16       0.12
      8.89      -0.75       0.19
      8.57      -0.94       0.06
      8.14      -0.39       0.36
      8.38      -0.74       0.28
      8.18      -1.10       0.46
      8.60      -1.44       0.44
      9.37      -1.06       0.06
      8.53      -1.28       0.20
      8.19      -1.09       0.33
      8.36      -1.03       0.29
      8.46      -0.92       0.41
      8.45      -1.12       0.47
      8.71      -1.40       0.41
      8.92      -0.59       0.42
      9.04       0.21       0.70
      9.44      -0.23       0.57
      9.20      -0.35       0.53
      8.98      -0.44       0.29
      8.79      -0.79       0.36
      8.82      -0.84       0.29
      8.62      -0.70      -0.33
      8.72      -0.72      -0.48
      8.81      -0.21      -0.20
      8.97       0.01       0.33
      9.44      -0.24       0.09
      9.81      -0.06      -0.22
      9.56      -0.03      -0.15
      9.03       0.10       0.49
      9.06       0.50       0.28
      9.41       0.04      -0.40
      9.14      -0.11      -0.29
      9.03      -0.26       0.00
      9.31      -0.36       0.09
      9.38      -0.67       0.03
      9.65      -0.95      -0.33
      8.89      -0.16       0.33
      8.88       0.03       0.03
      8.95       0.19       0.14
      8.69      -0.36       0.06
      8.45      -0.11       0.67
      8.61      -0.14       0.70
      8.85      -0.56       0.71
      9.01      -1.23       0.84
      9.28      -1.82       0.47
      9.48      -0.75       0.23
      9.27      -0.30       0.12
      8.79      -0.28       0.15
      8.74      -0.23       0.21
      9.02      -0.45       0.60
      8.88      -0.57       0.12
      8.97      -0.72       0.10
      9.50      -0.71       0.17
      9.62      -1.13      -0.27
      8.91      -1.10       0.57
      9.32      -0.63       0.48
      8.86      -0.51       0.34
      8.47      -0.99       0.43
      8.66      -1.09       0.36
      8.97      -1.10       0.33
      8.65      -1.11       0.41
      8.41      -0.75       0.50
      8.53      -0.69       0.54
      8.72      -0.90       0.47
      9.14      -1.09       0.26
      9.25      -0.89       0.43
      8.91      -0.93       0.77
      8.70      -1.27       0.66
      9.14      -1.08      -0.15
      9.22      -0.78      -0.59
      8.93      -0.92      -0.30
      8.75      -0.75      -0.20
      9.02      -0.16      -0.07
      9.34       0.15      -0.05
      9.07       0.06      -0.03
      8.89       0.03       0.06
      9.19      -0.14      -0.11
      9.48      -0.18      -0.30
      9.43      -0.10      -0.43
      9.55      -0.30      -0.42
      9.82      -0.44      -0.45
     10.01      -0.49      -0.42
     10.06      -0.92      -0.48
      9.29      -0.77       0.04
      9.23      -0.44      -0.00
      9.29       0.19       0.17
      9.33       0.04      -0.02
      9.69      -0.16       0.15
      9.51      -0.23       0.62
      9.27      -0.54       0.62
      8.91      -0.38       0.49
      8.85      -0.02       0.46
      9.26      -0.30       0.45
      8.94      -0.28       0.33
      8.73      -0.41       0.46
      8.97      -0.63       0.78
      9.13      -0.60       1.01
      9.19      -0.61       0.55
      9.12      -0.84       0.31
      9.35      -0.40      -0.14
      9.74      -0.55       0.19
      9.54      -1.17       0.58
      9.16      -0.71       0.65
      9.11      -0.24       0.56
      9.26      -0.18      -0.02
      9.39      -0.40      -0.04
      9.05      -0.48       0.22
      9.22      -0.62       0.24
      9.41      -0.60       0.07
      9.44      -0.79       0.18
      9.60      -1.14       0.15
      9.53      -1.07      -0.28
      9.57      -0.89       0.30
      9.98      -1.11       0.24
     10.34      -1.47       0.01
     10.04      -0.74      -0.33
      9.68      -0.80      -0.09
      9.42      -0.96       0.14
      9.39      -0.62       0.17
      9.13      -0.31      -0.13
      8.93      -0.10      -0.09
      9.08      -0.00       0.11
      9.27       0.07       0.13
      9.25       0.11       0.21
      9.43      -0.25       0.20
      9.87      -0.59      -0.03
     10.26      -0.61      -0.28
     10.14      -0.33      -0.37
     10.14      -0.38      -0.28
     10.15      -0.57      -0.12
      9.52      -0.37       0.12
      9.65      -0.25       0.05
      9.84      -0.40       0.10
      9.81      -0.09       0.10
      9.90       0.03       0.11
      9.37      -0.03       0.40
      9.22      -0.25       0.53
      9.56      -0.19       0.50
      9.49      -0.10       0.25
      9.09      -0.47       0.13
      9.02      -1.18       0.37
      9.37      -1.02       0.41
      9.45      -0.61       0.46
      9.27      -1.11       0.63
      9.41      -1.63       0.84
      9.67      -0.65       0.78
      9.33      -0.22       0.03
      8.74      -0.42       0.34
      8.64      -0.45       0.91
      8.89      -0.34       0.85
      9.33      -0.25       0.49
      9.91      -0.18       0.34
      9.97      -0.47       0.15
      9.96      -0.46      -0.01
     10.18      -0.60       0.19
      9.63      -0.54       0.18
      9.53      -0.70       0.49
      9.37      -0.84       0.20
      9.27      -1.12       0.08
      9.55      -1.23      -0.07
      9.84      -1.09      -0.03
      9.87      -1.14       0.08
      9.81      -1.07       0.16
      9.63      -0.84       0.28
      9.31      -0.97       0.08
      9.35      -1.03       0.09
      9.56      -0.85      -0.19
      9.16      -0.93      -0.32
      8.95      -0.74      -0.05
      8.95      -0.40      -0.01
      9.02      -0.19       0.02
      9.30      -0.41      -0.02
      9.77      -0.56      -0.26
     10.27      -0.62      -0.36
     10.37      -0.63      -0.29
     10.09      -0.45      -0.07
      9.91      -0.34       0.07
      9.61      -0.56      -0.11
      9.79      -0.41       0.01
      9.73      -0.09      -0.02
      9.66      -0.31       0.36
      9.50      -0.33       0.29
      9.59       0.04      -0.03
      9.64      -0.17       0.12
      9.39      -0.33       0.19
      9.12      -0.38       0.28
      9.07      -0.39       0.46
      9.24      -0.24       0.60
      9.29      -0.09       0.55
      9.07      -0.04       0.44
      9.15      -0.04       0.50
      9.27       0.00       0.57
      9.04       0.10       0.63
      8.99      -0.02       0.44
      8.92      -0.15       0.30
      9.08      -0.31       0.39
      9.49      -0.10       0.34
      9.66       0.35       0.11
      9.82       0.43       0.30
      9.97       0.34       0.31
      9.99       0.26      -0.13
      9.99      -0.15      -0.17
      9.96      -0.39       0.29
      9.82      -0.40       0.38
      9.87      -0.58       0.23
      9.85      -0.66       0.23
      9.77      -0.73       0.13
      9.84      -0.78      -0.14
      9.83      -0.82      -0.17
      9.72      -0.91       0.21
      9.83      -1.08       0.20
     10.01      -1.18      -0.17
      9.87      -0.98      -0.25
      9.68      -0.96      -0.08
      9.76      -1.01      -0.07
      9.85      -0.83      -0.03
      9.74      -0.65       0.16
      9.65      -0.64       0.26
      9.78      -0.72       0.25
      9.79      -0.92       0.08
      9.72      -0.88      -0.05
      9.93      -0.71      -0.14
     10.07      -0.66      -0.21
     10.07      -0.64      -0.07
