
Predictions were generated on 19-Jun-2024 at 14:16:31 using HydroDyn Driver, compiled on Jun 19 2024 at 12:41:58 as a 64-bit application using double precision at commit v3.5.3-1370-g042b249a-dirty
 linked with  NWTC Subroutine Library

Description from the driver input file: NREL 5.0 MW offshore baseline floating platform HydroDyn input properties for the OC4 Semi-submersible.

Time	Wave1Elev	HydroFxi	HydroFyi	HydroFzi	HydroMxi	HydroMyi	HydroMzi	B1Surge	B1Sway	B1Heave	B1Roll	B1Pitch	B1Yaw	B1TVxi	B1TVyi	B1TVzi	B1RVxi	B1RVyi	B1RVzi	B1TAxi	B1TAyi	B1TAzi	B1RAxi	B1RAyi	B1RAzi	B1WvsFxi	B1WvsFyi	B1WvsFzi	B1WvsMxi	B1WvsMyi	B1WvsMzi	B1HDSFxi	B1HDSFyi	B1HDSFzi	B1HDSMxi	B1HDSMyi	B1HDSMzi	B1RdtFxi	B1RdtFyi	B1RdtFzi	B1RdtMxi	B1RdtMyi	B1RdtMzi
(s)	(m)	(N)	(N)	(N)	(N-m)	(N-m)	(N-m)	(m)	(m)	(m)	(rad)	(rad)	(rad)	(m/s)	(m/s)	(m/s)	(rad/s)	(rad/s)	(rad/s)	(m/s^2)	(m/s^2)	(m/s^2)	(rad/s^2)	(rad/s^2)	(rad/s^2)	(N)	(N)	(N)	(N-m)	(N-m)	(N-m)	(N)	(N)	(N)	(N-m)	(N-m)	(N-m)	(N)	(N)	(N)	(N-m)	(N-m)	(N-m)
    0.0000	   1.792939E-01	  -8.918335E+04	   1.214417E+06	   4.495002E+07	   4.363226E+07	  -2.994351E+06	   5.784318E+06	  -1.294095E+00	  -4.829629E+00	   0.000000E+00	   0.000000E+00	   3.316126E-02	  -1.832596E+00	   0.000000E+00	   0.000000E+00	   0.000000E+00	   0.000000E+00	   0.000000E+00	   0.000000E+00	   6.331177E-03	   2.399778E-02	   2.403348E-02	  -6.403985E-03	   1.712356E-03	  -2.316186E-07	  -3.877583E+05	   1.084761E+05	   6.481360E+03	  -3.345958E+06	   9.643659E+06	   5.789727E+06	   0.000000E+00	   0.000000E+00	   1.398911E+08	   1.219481E+07	  -3.267590E+06	   0.000000E+00	   1.046634E+05	   3.893512E+05	  -3.532728E+05	   4.413933E+07	  -1.180966E+07	   1.127695E+03
    0.0125	   1.777091E-01	  -7.744295E+04	   1.228352E+06	   4.495040E+07	   4.381420E+07	  -3.020718E+06	   5.986646E+06	  -1.294095E+00	  -4.829628E+00	   1.874298E-06	   1.226017E-09	   3.316074E-02	  -1.832596E+00	   7.162112E-05	   2.957815E-04	   2.994401E-04	  -7.984760E-05	   2.109690E-05	  -1.913412E-08	   5.813949E-03	   2.317066E-02	   2.388595E-02	  -6.397822E-03	   1.700052E-03	  -1.509157E-06	  -3.814871E+05	   1.105027E+05	   3.383883E+03	  -3.290503E+06	   9.576653E+06	   5.977188E+06	   0.000000E+00	   0.000000E+00	   1.398911E+08	   1.219462E+07	  -3.267539E+06	   0.000000E+00	   1.069717E+05	   3.941925E+05	  -3.511043E+05	   4.416528E+07	  -1.176495E+07	   7.347940E+03
    0.0250	   1.761243E-01	  -6.351348E+04	   1.245583E+06	   4.495172E+07	   4.384108E+07	  -2.966234E+06	   6.201585E+06	  -1.294093E+00	  -4.829622E+00	   7.474097E-06	   6.075032E-09	   3.315919E-02	  -1.832596E+00	   1.392893E-04	   5.707638E-04	   5.956476E-04	  -1.595182E-04	   4.223937E-05	  -4.655828E-08	   4.997144E-03	   2.184389E-02	   2.369358E-02	  -6.371233E-03	   1.676445E-03	  -3.891786E-06	  -3.752160E+05	   1.125293E+05	   2.864053E+02	  -3.235048E+06	   9.509647E+06	   6.164648E+06	   0.000000E+00	   0.000000E+00	   1.398911E+08	   1.219405E+07	  -3.267388E+06	   0.000000E+00	   1.102628E+05	   4.005409E+05	  -3.482772E+05	   4.408658E+07	  -1.166425E+07	   1.894919E+04
    0.0375	   1.745395E-01	  -4.852690E+04	   1.266228E+06	   4.495425E+07	   4.371882E+07	  -2.873960E+06	   6.422852E+06	  -1.294091E+00	  -4.829613E+00	   1.676519E-05	   1.464377E-08	   3.315661E-02	  -1.832596E+00	   1.980606E-04	   8.335243E-04	   8.904906E-04	  -2.389137E-04	   6.311257E-05	  -1.083756E-07	   4.037532E-03	   2.001627E-02	   2.344590E-02	  -6.324633E-03	   1.647497E-03	  -6.789739E-06	  -3.689449E+05	   1.145558E+05	  -2.811072E+03	  -3.179594E+06	   9.442641E+06	   6.352108E+06	   0.000000E+00	   0.000000E+00	   1.398911E+08	   1.219310E+07	  -3.267138E+06	   0.000000E+00	   1.140282E+05	   4.084438E+05	  -3.446380E+05	   4.390642E+07	  -1.153726E+07	   3.306041E+04
    0.0500	   1.729547E-01	  -3.390235E+04	   1.289660E+06	   4.495775E+07	   4.346996E+07	  -2.794844E+06	   6.643000E+06	  -1.294089E+00	  -4.829601E+00	   2.972125E-05	   2.928349E-08	   3.315302E-02	  -1.832596E+00	   2.455720E-04	   1.070881E-03	   1.181957E-03	  -3.176290E-04	   8.365582E-05	  -2.048084E-07	   3.127143E-03	   1.777285E-02	   2.315413E-02	  -6.261199E-03	   1.620378E-03	  -9.512799E-06	  -3.626738E+05	   1.165824E+05	  -5.908550E+03	  -3.124138E+06	   9.375634E+06	   6.539569E+06	   0.000000E+00	   0.000000E+00	   1.398910E+08	   1.219178E+07	  -3.266788E+06	   0.000000E+00	   1.176327E+05	   4.176206E+05	  -3.403517E+05	   4.364050E+07	  -1.141933E+07	   4.632170E+04
    0.0625	   1.713699E-01	  -2.104263E+04	   1.315146E+06	   4.496210E+07	   4.312404E+07	  -2.779726E+06	   6.854428E+06	  -1.294085E+00	  -4.829587E+00	   4.629667E-05	   5.098270E-08	   3.314841E-02	  -1.832596E+00	   2.828077E-04	   1.278781E-03	   1.469460E-03	  -3.954946E-04	   1.039005E-04	  -3.316724E-07	   2.456453E-03	   1.521729E-02	   2.282408E-02	  -6.184960E-03	   1.602221E-03	  -1.136175E-05	  -3.564026E+05	   1.186089E+05	  -9.006027E+03	  -3.068684E+06	   9.308628E+06	   6.727030E+06	   0.000000E+00	   0.000000E+00	   1.398910E+08	   1.219008E+07	  -3.266342E+06	   0.000000E+00	   1.204479E+05	   4.277425E+05	  -3.355035E+05	   4.330904E+07	  -1.134570E+07	   5.532981E+04
    0.0750	   1.697851E-01	  -1.109655E+04	   1.341774E+06	   4.496714E+07	   4.271750E+07	  -2.870077E+06	   7.051188E+06	  -1.294081E+00	  -4.829569E+00	   6.643895E-05	   7.961516E-08	   3.314280E-02	  -1.832596E+00	   3.137039E-04	   1.453681E-03	   1.752755E-03	  -4.723637E-04	   1.239923E-04	  -4.740380E-07	   2.181155E-03	   1.247820E-02	   2.246323E-02	  -6.100891E-03	   1.598846E-03	  -1.179281E-05	  -3.501315E+05	   1.206355E+05	  -1.210351E+04	  -3.013229E+06	   9.241623E+06	   6.914490E+06	   0.000000E+00	   0.000000E+00	   1.398909E+08	   1.218801E+07	  -3.265800E+06	   0.000000E+00	   1.219598E+05	   4.383994E+05	  -3.302036E+05	   4.293698E+07	  -1.134510E+07	   5.743818E+04
    0.0875	   1.682003E-01	  -4.736850E+03	   1.368509E+06	   4.497273E+07	   4.229139E+07	  -3.089730E+06	   7.229776E+06	  -1.294077E+00	  -4.829550E+00	   9.009390E-05	   1.124505E-07	   3.313620E-02	  -1.832596E+00	   3.431031E-04	   1.594241E-03	   2.031363E-03	  -5.481748E-04	   1.441082E-04	  -6.139890E-07	   2.391737E-03	   9.701111E-03	   2.207936E-02	  -6.014609E-03	   1.613618E-03	  -1.049606E-05	  -3.438603E+05	   1.226621E+05	  -1.520098E+04	  -2.957774E+06	   9.174616E+06	   7.101950E+06	   0.000000E+00	   0.000000E+00	   1.398908E+08	   1.218559E+07	  -3.265162E+06	   0.000000E+00	   1.218678E+05	   4.491267E+05	  -3.245662E+05	   4.255246E+07	  -1.143407E+07	   5.113862E+04
    0.1000	   1.666155E-01	  -2.080188E+03	   1.394282E+06	   4.497871E+07	   4.188787E+07	  -3.441902E+06	   7.389738E+06	  -1.294073E+00	  -4.829529E+00	   1.172009E-04	   1.444473E-07	   3.312863E-02	  -1.832596E+00	   3.772353E-04	   1.700700E-03	   2.305070E-03	  -6.229263E-04	   1.644802E-04	  -7.291954E-07	   3.102486E-03	   7.036075E-03	   2.168005E-02	  -5.931893E-03	   1.647021E-03	  -7.448760E-06	  -3.375892E+05	   1.246886E+05	  -1.829846E+04	  -2.902319E+06	   9.107610E+06	   7.289411E+06	   0.000000E+00	   0.000000E+00	   1.398907E+08	   1.218280E+07	  -3.264428E+06	   0.000000E+00	   1.201207E+05	   4.594437E+05	  -3.187027E+05	   4.218436E+07	  -1.161493E+07	   3.632057E+04
    0.1125	   1.650307E-01	  -2.628225E+03	   1.418100E+06	   4.498492E+07	   4.154597E+07	  -3.907024E+06	   7.533884E+06	  -1.294068E+00	  -4.829507E+00	   1.476978E-04	   1.678162E-07	   3.312010E-02	  -1.832596E+00	   4.218293E-04	   1.775216E-03	   2.573701E-03	  -6.966911E-04	   1.853200E-04	  -7.995558E-07	   4.243459E-03	   4.622323E-03	   2.127229E-02	  -5.858097E-03	   1.696368E-03	  -2.934001E-06	  -3.313181E+05	   1.267152E+05	  -2.139594E+04	  -2.846864E+06	   9.040604E+06	   7.476872E+06	   0.000000E+00	   0.000000E+00	   1.398906E+08	   1.217966E+07	  -3.263596E+06	   0.000000E+00	   1.169434E+05	   4.689043E+05	  -3.127161E+05	   4.185947E+07	  -1.187421E+07	   1.436190E+04
    0.1250	   1.634458E-01	  -5.384877E+03	   1.439036E+06	   4.499126E+07	   4.130128E+07	  -4.446988E+06	   7.667918E+06	  -1.294062E+00	  -4.829485E+00	   1.815206E-04	   1.728641E-07	   3.311061E-02	  -1.832596E+00	   4.816380E-04	   1.821473E-03	   2.837181E-03	  -7.696000E-04	   2.068044E-04	  -8.092070E-07	   5.676400E-03	   2.588469E-03	   2.086190E-02	  -5.798132E-03	   1.756388E-03	   2.496517E-06	  -3.250469E+05	   1.287418E+05	  -2.449342E+04	  -2.791410E+06	   8.973598E+06	   7.664332E+06	   0.000000E+00	   0.000000E+00	   1.398904E+08	   1.217617E+07	  -3.262664E+06	   0.000000E+00	   1.127840E+05	   4.770931E+05	  -3.066916E+05	   4.160224E+07	  -1.218568E+07	  -1.205243E+04
    0.1375	   1.618610E-01	  -8.972647E+03	   1.456442E+06	   4.499765E+07	   4.117854E+07	  -5.009598E+06	   7.799586E+06	  -1.294056E+00	  -4.829463E+00	   2.186047E-04	   1.486843E-07	   3.310018E-02	  -1.832596E+00	   5.594574E-04	   1.844764E-03	   3.095492E-03	  -8.418455E-04	   2.290358E-04	  -7.503991E-07	   7.210898E-03	   1.024341E-03	   2.045165E-02	  -5.755415E-03	   1.819845E-03	   8.104611E-06	  -3.187758E+05	   1.307683E+05	  -2.759089E+04	  -2.735954E+06	   8.906592E+06	   7.851793E+06	   0.000000E+00	   0.000000E+00	   1.398903E+08	   1.217234E+07	  -3.261626E+06	   0.000000E+00	   1.082617E+05	   4.837195E+05	  -3.006700E+05	   4.142970E+07	  -1.251337E+07	  -3.933013E+04
    0.1500	   1.602762E-01	  -1.182038E+04	   1.470123E+06	   4.500408E+07	   4.118546E+07	  -5.535690E+06	   7.937452E+06	  -1.294048E+00	  -4.829439E+00	   2.588857E-04	   8.438896E-08	   3.308880E-02	  -1.832596E+00	   6.556412E-04	   1.851002E-03	   3.348628E-03	  -9.136435E-04	   2.520249E-04	  -6.247841E-07	   8.630362E-03	  -4.261003E-05	   2.004201E-02	  -5.731001E-03	   1.878527E-03	   1.308115E-05	  -3.125047E+05	   1.327949E+05	  -3.068837E+04	  -2.680500E+06	   8.839586E+06	   8.039253E+06	   0.000000E+00	   0.000000E+00	   1.398901E+08	   1.216816E+07	  -3.260482E+06	   0.000000E+00	   1.040820E+05	   4.886959E+05	  -2.946582E+05	   4.134712E+07	  -1.281648E+07	  -6.353382E+04
    0.1625	   1.586914E-01	  -1.245588E+04	   1.480170E+06	   4.501053E+07	   4.131804E+07	  -5.969754E+06	   8.089549E+06	  -1.294039E+00	  -4.829416E+00	   3.022988E-04	  -2.973248E-08	   3.307649E-02	  -1.832596E+00	   7.678841E-04	   1.846190E-03	   3.596602E-03	  -9.852144E-04	   2.756819E-04	  -4.439498E-07	   9.731772E-03	  -6.256573E-04	   1.963333E-02	  -5.724358E-03	   1.924735E-03	   1.667287E-05	  -3.062335E+05	   1.348214E+05	  -3.378585E+04	  -2.625045E+06	   8.772580E+06	   8.226713E+06	   0.000000E+00	   0.000000E+00	   1.398900E+08	   1.216364E+07	  -3.259227E+06	   0.000000E+00	   1.009061E+05	   4.920640E+05	  -2.886616E+05	   4.135177E+07	  -1.305676E+07	  -8.099821E+04
    0.1750	   1.571066E-01	  -9.716846E+03	   1.487028E+06	   4.501700E+07	   4.155845E+07	  -6.267882E+06	   8.262168E+06	  -1.294029E+00	  -4.829393E+00	   3.487795E-04	  -2.010675E-07	   3.306323E-02	  -1.832596E+00	   8.916414E-04	   1.836150E-03	   3.839433E-03	  -1.056772E-03	   2.998321E-04	  -2.279699E-07	   1.035476E-02	  -7.874947E-04	   1.922497E-02	  -5.733054E-03	   1.952382E-03	   1.829665E-05	  -2.999624E+05	   1.368480E+05	  -3.688332E+04	  -2.569590E+06	   8.705574E+06	   8.414174E+06	   0.000000E+00	   0.000000E+00	   1.398898E+08	   1.215878E+07	  -3.257857E+06	   0.000000E+00	   9.925588E+04	   4.940239E+05	  -2.826702E+05	   4.143148E+07	  -1.320397E+07	  -8.888628E+04
    0.1875	   1.555218E-01	  -2.909494E+03	   1.491510E+06	   4.502351E+07	   4.187475E+07	  -6.403734E+06	   8.459075E+06	  -1.294017E+00	  -4.829370E+00	   3.982637E-04	  -4.338634E-07	   3.304902E-02	  -1.832596E+00	   1.020583E-03	   1.825450E-03	   4.077117E-03	  -1.128480E-03	   3.242320E-04	  -3.003725E-09	   1.040347E-02	  -6.418826E-04	   1.881456E-02	  -5.752709E-03	   1.957827E-03	   1.761406E-05	  -2.936913E+05	   1.388746E+05	  -3.998080E+04	  -2.514135E+06	   8.638568E+06	   8.601634E+06	   0.000000E+00	   0.000000E+00	   1.398896E+08	   1.215358E+07	  -3.256372E+06	   0.000000E+00	   9.944271E+04	   4.949413E+05	  -2.766496E+05	   4.156433E+07	  -1.323999E+07	  -8.555170E+04
    0.2000	   1.539370E-01	   8.085033E+03	   1.494698E+06	   4.503012E+07	   4.222452E+07	  -6.372483E+06	   8.680765E+06	  -1.294003E+00	  -4.829348E+00	   4.506866E-04	  -7.287804E-07	   3.303388E-02	  -1.832596E+00	   1.147543E-03	   1.817159E-03	   4.309623E-03	  -1.200448E-03	   3.486059E-04	   2.018694E-07	   9.861114E-03	  -3.402915E-04	   1.839920E-02	  -5.777502E-03	   1.940418E-03	   1.459792E-05	  -2.874201E+05	   1.409011E+05	  -4.307828E+04	  -2.458680E+06	   8.571562E+06	   8.789095E+06	   0.000000E+00	   0.000000E+00	   1.398894E+08	   1.214804E+07	  -3.254771E+06	   0.000000E+00	   1.015199E+05	   4.953035E+05	  -2.705568E+05	   4.172124E+07	  -1.316157E+07	  -7.086295E+04
    0.2125	   1.522102E-01	   2.128341E+04	   1.495432E+06	   4.503727E+07	   4.250184E+07	  -6.179988E+06	   8.886524E+06	  -1.293988E+00	  -4.829325E+00	   5.059832E-04	  -1.082936E-06	   3.301778E-02	  -1.832596E+00	   1.265477E-03	   1.812354E-03	   4.536883E-03	  -1.272708E-03	   3.726812E-04	   3.588313E-07	   8.806987E-03	   1.396365E-06	   1.795638E-02	  -5.797111E-03	   1.901577E-03	   9.537607E-06	  -2.821795E+05	   1.423054E+05	  -4.621574E+04	  -2.398728E+06	   8.499161E+06	   8.938892E+06	   0.000000E+00	   0.000000E+00	   1.398892E+08	   1.214216E+07	  -3.253055E+06	   0.000000E+00	   1.050939E+05	   4.949838E+05	  -2.640614E+05	   4.183764E+07	  -1.297220E+07	  -4.622865E+04
    0.2250	   1.504834E-01	   3.724069E+04	   1.497436E+06	   4.504460E+07	   4.271291E+07	  -5.873154E+06	   9.108447E+06	  -1.293972E+00	  -4.829302E+00	   5.640846E-04	  -1.490424E-06	   3.300073E-02	  -1.832596E+00	   1.368781E-03	   1.811306E-03	   4.758331E-03	  -1.345120E-03	   3.962010E-04	   4.449988E-07	   7.357426E-03	   1.417284E-04	   1.750257E-02	  -5.808155E-03	   1.847259E-03	   2.992399E-06	  -2.769389E+05	   1.437096E+05	  -4.935320E+04	  -2.338776E+06	   8.426760E+06	   9.088689E+06	   0.000000E+00	   0.000000E+00	   1.398890E+08	   1.213593E+07	  -3.251226E+06	   0.000000E+00	   1.099170E+05	   4.952607E+05	  -2.574048E+05	   4.190968E+07	  -1.270492E+07	  -1.437077E+04
    0.2375	   1.487566E-01	   5.465307E+04	   1.501944E+06	   4.505214E+07	   4.280988E+07	  -5.500548E+06	   9.338554E+06	  -1.293954E+00	  -4.829279E+00	   6.249191E-04	  -1.943240E-06	   3.298273E-02	  -1.832596E+00	   1.453033E-03	   1.809711E-03	   4.974153E-03	  -1.417609E-03	   4.190159E-04	   4.453566E-07	   5.691486E-03	  -9.131127E-05	   1.703615E-02	  -5.804049E-03	   1.784230E-03	  -4.275329E-06	  -2.716983E+05	   1.451139E+05	  -5.249066E+04	  -2.278824E+06	   8.354358E+06	   9.238486E+06	   0.000000E+00	   0.000000E+00	   1.398888E+08	   1.212935E+07	  -3.249286E+06	   0.000000E+00	   1.154037E+05	   4.966895E+05	  -2.505637E+05	   4.190453E+07	  -1.239331E+07	   2.100083E+04
    0.2500	   1.470298E-01	   7.207841E+04	   1.509980E+06	   4.505987E+07	   4.275333E+07	  -5.116034E+06	   9.567829E+06	  -1.293936E+00	  -4.829257E+00	   6.884145E-04	  -2.432467E-06	   3.296379E-02	  -1.832596E+00	   1.516432E-03	   1.802492E-03	   5.184102E-03	  -1.489939E-03	   4.410403E-04	   3.549906E-07	   4.007422E-03	  -8.396967E-04	   1.655698E-02	  -5.779366E-03	   1.719985E-03	  -1.141378E-05	  -2.664577E+05	   1.465182E+05	  -5.562812E+04	  -2.218872E+06	   8.281958E+06	   9.388283E+06	   0.000000E+00	   0.000000E+00	   1.398885E+08	   1.212243E+07	  -3.247239E+06	   0.000000E+00	   1.209067E+05	   4.997294E+05	  -2.435359E+05	   4.179513E+07	  -1.207454E+07	   5.574152E+04
    0.2625	   1.453030E-01	   8.814718E+04	   1.522200E+06	   4.506775E+07	   4.251780E+07	  -4.770844E+06	   9.787537E+06	  -1.293916E+00	  -4.829234E+00	   7.544965E-04	  -2.949565E-06	   3.294390E-02	  -1.832596E+00	   1.559521E-03	   1.782823E-03	   5.388035E-03	  -1.561842E-03	   4.622858E-04	   1.795149E-07	   2.493581E-03	  -2.195035E-03	   1.606607E-02	  -5.730605E-03	   1.661651E-03	  -1.760633E-05	  -2.612171E+05	   1.479224E+05	  -5.876559E+04	  -2.158920E+06	   8.209556E+06	   9.538080E+06	   0.000000E+00	   0.000000E+00	   1.398883E+08	   1.211517E+07	  -3.245090E+06	   0.000000E+00	   1.258110E+05	   5.046768E+05	  -2.363360E+05	   4.156403E+07	  -1.178397E+07	   8.587823E+04
    0.2750	   1.435762E-01	   1.017864E+05	   1.538887E+06	   4.507572E+07	   4.209265E+07	  -4.505272E+06	   9.990480E+06	  -1.293897E+00	  -4.829212E+00	   8.230892E-04	  -3.487568E-06	   3.292309E-02	  -1.832596E+00	   1.585005E-03	   1.743006E-03	   5.585815E-03	  -1.633013E-03	   4.828455E-04	  -6.595987E-08	   1.297757E-03	  -4.195861E-03	   1.556642E-02	  -5.656303E-03	   1.614823E-03	  -2.218906E-05	  -2.559765E+05	   1.493267E+05	  -6.190305E+04	  -2.098968E+06	   8.137155E+06	   9.687877E+06	   0.000000E+00	   0.000000E+00	   1.398880E+08	   1.210757E+07	  -3.242841E+06	   0.000000E+00	   1.296348E+05	   5.116573E+05	  -2.290082E+05	   4.120394E+07	  -1.154939E+07	   1.081813E+05
    0.2875	   1.418494E-01	   1.123575E+05	   1.559846E+06	   4.508368E+07	   4.148536E+07	  -4.343436E+06	   1.017207E+07	  -1.293877E+00	  -4.829191E+00	   8.941150E-04	  -4.042007E-06	   3.290135E-02	  -1.832596E+00	   1.597146E-03	   1.675085E-03	   5.777360E-03	  -1.703136E-03	   5.028720E-04	  -3.591634E-07	   5.080855E-04	  -6.815290E-03	   1.506262E-02	  -5.557494E-03	   1.582845E-03	  -2.474903E-05	  -2.507359E+05	   1.507310E+05	  -6.504051E+04	  -2.039015E+06	   8.064754E+06	   9.837674E+06	   0.000000E+00	   0.000000E+00	   1.398877E+08	   1.209963E+07	  -3.240495E+06	   0.000000E+00	   1.320917E+05	   5.205851E+05	  -2.216201E+05	   4.072006E+07	  -1.138741E+07	   1.206430E+05
    0.3000	   1.401226E-01	   1.197561E+05	   1.584476E+06	   4.509151E+07	   4.071947E+07	  -4.289585E+06	   1.033097E+07	  -1.293857E+00	  -4.829171E+00	   9.674959E-04	  -4.611432E-06	   3.287871E-02	  -1.832596E+00	   1.601042E-03	   1.571852E-03	   5.962649E-03	  -1.771927E-03	   5.225510E-04	  -6.741431E-07	   1.393975E-04	  -9.968918E-03	   1.456039E-02	  -5.437421E-03	   1.566290E-03	  -2.518373E-05	  -2.454953E+05	   1.521352E+05	  -6.817797E+04	  -1.979063E+06	   7.992353E+06	   9.987471E+06	   0.000000E+00	   0.000000E+00	   1.398874E+08	   1.209136E+07	  -3.238056E+06	   0.000000E+00	   1.331346E+05	   5.311894E+05	  -2.142555E+05	   4.012857E+07	  -1.130090E+07	   1.227660E+05
    0.3125	   1.383958E-01	   1.244038E+05	   1.611779E+06	   4.509906E+07	   3.983351E+07	  -4.328296E+06	   1.046925E+07	  -1.293837E+00	  -4.829152E+00	   1.043154E-03	  -5.197465E-06	   3.285519E-02	  -1.832596E+00	   1.601628E-03	   1.427266E-03	   6.141730E-03	  -1.839142E-03	   5.420625E-04	  -9.852647E-07	   1.341978E-04	  -1.351796E-02	   1.406646E-02	  -5.301397E-03	   1.562997E-03	  -2.370809E-05	  -2.402547E+05	   1.535395E+05	  -7.131543E+04	  -1.919111E+06	   7.919952E+06	   1.013727E+07	   0.000000E+00	   0.000000E+00	   1.398872E+08	   1.208277E+07	  -3.235522E+06	   0.000000E+00	   1.329531E+05	   5.430231E+05	  -2.070135E+05	   3.945598E+07	  -1.127917E+07	   1.155980E+05
    0.3250	   1.366690E-01	   1.271775E+05	   1.640490E+06	   4.510619E+07	   3.887643E+07	  -4.427113E+06	   1.059198E+07	  -1.293817E+00	  -4.829135E+00	   1.121012E-03	  -5.804360E-06	   3.283080E-02	  -1.832596E+00	   1.602914E-03	   1.237306E-03	   6.314746E-03	  -1.904617E-03	   5.615535E-04	  -1.270923E-06	   3.724009E-04	  -1.728614E-02	   1.358806E-02	  -5.156169E-03	   1.568438E-03	  -2.082002E-05	  -2.350141E+05	   1.549437E+05	  -7.445289E+04	  -1.859159E+06	   7.847550E+06	   1.028706E+07	   0.000000E+00	   0.000000E+00	   1.398868E+08	   1.207386E+07	  -3.232896E+06	   0.000000E+00	   1.319409E+05	   5.555180E+05	  -2.000003E+05	   3.873597E+07	  -1.129978E+07	   1.015634E+05
    0.3375	   1.349422E-01	   1.292675E+05	   1.669212E+06	   4.511274E+07	   3.790241E+07	  -4.541838E+06	   1.070653E+07	  -1.293797E+00	  -4.829121E+00	   1.200996E-03	  -6.438164E-06	   3.280557E-02	  -1.832596E+00	   1.607225E-03	   1.000155E-03	   6.481923E-03	  -1.968269E-03	   5.811072E-04	  -1.516806E-06	   6.907922E-04	  -2.107854E-02	   1.313258E-02	  -5.009200E-03	   1.576450E-03	  -1.722580E-05	  -2.297735E+05	   1.563480E+05	  -7.759035E+04	  -1.799207E+06	   7.775149E+06	   1.043686E+07	   0.000000E+00	   0.000000E+00	   1.398865E+08	   1.206464E+07	  -3.230178E+06	   0.000000E+00	   1.306326E+05	   5.680462E+05	  -1.933244E+05	   3.800575E+07	  -1.133219E+07	   8.410073E+04
    0.3500	   1.332154E-01	   1.319913E+05	   1.696556E+06	   4.511858E+07	   3.696510E+07	  -4.623454E+06	   1.082137E+07	  -1.293777E+00	  -4.829110E+00	   1.283035E-03	  -7.105569E-06	   3.277952E-02	  -1.832596E+00	   1.614807E-03	   7.164509E-04	   6.643577E-03	  -2.030113E-03	   6.007298E-04	  -1.717982E-06	   9.086164E-04	  -2.470202E-02	   1.270705E-02	  -4.867882E-03	   1.580210E-03	  -1.373082E-05	  -2.245328E+05	   1.577522E+05	  -8.072781E+04	  -1.739255E+06	   7.702748E+06	   1.058666E+07	   0.000000E+00	   0.000000E+00	   1.398862E+08	   1.205513E+07	  -3.227366E+06	   0.000000E+00	   1.296198E+05	   5.799854E+05	  -1.870893E+05	   3.730220E+07	  -1.134256E+07	   6.713002E+04
    0.3625	   1.314886E-01	   1.365950E+05	   1.721302E+06	   4.512358E+07	   3.611198E+07	  -4.625578E+06	   1.094479E+07	  -1.293756E+00	  -4.829103E+00	   1.367063E-03	  -7.812650E-06	   3.275267E-02	  -1.832596E+00	   1.623705E-03	   3.891090E-04	   6.800108E-03	  -2.090245E-03	   6.203442E-04	  -1.879538E-06	   8.548976E-04	  -2.798604E-02	   1.231757E-02	  -4.738749E-03	   1.573259E-03	  -1.111710E-05	  -2.192922E+05	   1.591565E+05	  -8.386527E+04	  -1.679303E+06	   7.630347E+06	   1.073646E+07	   0.000000E+00	   0.000000E+00	   1.398859E+08	   1.204532E+07	  -3.224460E+06	   0.000000E+00	   1.294621E+05	   5.907865E+05	  -1.813844E+05	   3.665792E+07	  -1.129886E+07	   5.445743E+04
    0.3750	   1.297618E-01	   1.440701E+05	   1.742515E+06	   4.512764E+07	   3.537928E+07	  -4.511308E+06	   1.108365E+07	  -1.293736E+00	  -4.829101E+00	   1.453017E-03	  -8.563647E-06	   3.272504E-02	  -1.832596E+00	   1.629992E-03	   2.298126E-05	   6.951979E-03	  -2.148842E-03	   6.397986E-04	  -2.015690E-06	   3.936523E-04	  -3.080056E-02	   1.196879E-02	  -4.626780E-03	   1.550464E-03	  -1.002626E-05	  -2.140516E+05	   1.605608E+05	  -8.700273E+04	  -1.619350E+06	   7.557946E+06	   1.088625E+07	   0.000000E+00	   0.000000E+00	   1.398856E+08	   1.203524E+07	  -3.221462E+06	   0.000000E+00	   1.306046E+05	   6.000314E+05	  -1.762784E+05	   3.609779E+07	  -1.117566E+07	   4.920546E+04
    0.3875	   1.280350E-01	   1.550167E+05	   1.759662E+06	   4.513071E+07	   3.478809E+07	  -4.258422E+06	   1.124242E+07	  -1.293716E+00	  -4.829103E+00	   1.540844E-03	  -9.359979E-06	   3.269664E-02	  -1.832596E+00	   1.628282E-03	  -3.757225E-04	   7.099706E-03	  -2.206129E-03	   6.588857E-04	  -2.147552E-06	  -5.572122E-04	  -3.307038E-02	   1.166306E-02	  -4.534869E-03	   1.508732E-03	  -1.087101E-05	  -2.088110E+05	   1.619650E+05	  -9.014020E+04	  -1.559398E+06	   7.485544E+06	   1.103605E+07	   0.000000E+00	   0.000000E+00	   1.398852E+08	   1.202487E+07	  -3.218372E+06	   0.000000E+00	   1.333167E+05	   6.074797E+05	  -1.718055E+05	   3.563623E+07	  -1.095764E+07	   5.338251E+04
    0.4000	   1.263082E-01	   1.695609E+05	   1.772637E+06	   4.513280E+07	   3.434276E+07	  -3.862466E+06	   1.142239E+07	  -1.293695E+00	  -4.829110E+00	   1.630495E-03	  -1.019960E-05	   3.266750E-02	  -1.832596E+00	   1.612435E-03	  -8.001526E-04	   7.243820E-03	  -2.262359E-03	   6.773694E-04	  -2.300025E-06	  -2.014519E-03	  -3.478061E-02	   1.140055E-02	  -4.463595E-03	   1.447442E-03	  -1.376658E-05	  -2.035704E+05	   1.633693E+05	  -9.327766E+04	  -1.499446E+06	   7.413144E+06	   1.118585E+07	   0.000000E+00	   0.000000E+00	   1.398849E+08	   1.201424E+07	  -3.215193E+06	   0.000000E+00	   1.376548E+05	   6.130852E+05	  -1.679683E+05	   3.527620E+07	  -1.064173E+07	   6.754900E+04
    0.4125	   1.243724E-01	   1.855590E+05	   1.779323E+06	   4.513428E+07	   3.396636E+07	  -3.322032E+06	   1.158232E+07	  -1.293675E+00	  -4.829123E+00	   1.721927E-03	  -1.107681E-05	   3.263763E-02	  -1.832596E+00	   1.576379E-03	  -1.243553E-03	   7.384850E-03	  -2.317779E-03	   6.950150E-04	  -2.497838E-06	  -3.917536E-03	  -3.593396E-02	   1.116464E-02	  -4.406985E-03	   1.367341E-03	  -1.852094E-05	  -1.996608E+05	   1.640043E+05	  -9.639297E+04	  -1.437663E+06	   7.338040E+06	   1.129659E+07	   0.000000E+00	   0.000000E+00	   1.398846E+08	   1.200334E+07	  -3.211927E+06	   0.000000E+00	   1.432889E+05	   6.163578E+05	  -1.645224E+05	   3.497482E+07	  -1.022817E+07	   9.077028E+04
    0.4250	   1.224365E-01	   2.040534E+05	   1.782968E+06	   4.513489E+07	   3.369323E+07	  -2.680775E+06	   1.175671E+07	  -1.293656E+00	  -4.829142E+00	   1.815104E-03	  -1.198251E-05	   3.260704E-02	  -1.832596E+00	   1.515160E-03	  -1.698976E-03	   7.522949E-03	  -2.372506E-03	   7.115924E-04	  -2.761947E-06	  -6.173749E-03	  -3.668331E-02	   1.096643E-02	  -4.365103E-03	   1.273532E-03	  -2.467933E-05	  -1.957512E+05	   1.646394E+05	  -9.950827E+04	  -1.375879E+06	   7.262938E+06	   1.140734E+07	   0.000000E+00	   0.000000E+00	   1.398842E+08	   1.199218E+07	  -3.208580E+06	   0.000000E+00	   1.500535E+05	   6.182954E+05	  -1.616310E+05	   3.474559E+07	  -9.745878E+06	   1.208332E+05
    0.4375	   1.205006E-01	   2.239991E+05	   1.784660E+06	   4.513474E+07	   3.348178E+07	  -1.978638E+06	   1.193880E+07	  -1.293638E+00	  -4.829166E+00	   1.909993E-03	  -1.290485E-05	   3.257574E-02	  -1.832596E+00	   1.424804E-03	  -2.162848E-03	   7.658815E-03	  -2.426766E-03	   7.269721E-04	  -3.106701E-06	  -8.638097E-03	  -3.717943E-02	   1.080019E-02	  -4.332198E-03	   1.171541E-03	  -3.159720E-05	  -1.918415E+05	   1.652744E+05	  -1.026236E+05	  -1.314096E+06	   7.187834E+06	   1.151808E+07	   0.000000E+00	   0.000000E+00	   1.398838E+08	   1.198076E+07	  -3.205158E+06	   0.000000E+00	   1.574788E+05	   6.193870E+05	  -1.592100E+05	   3.455985E+07	  -9.222373E+06	   1.546014E+05
    0.4500	   1.185647E-01	   2.442160E+05	   1.785666E+06	   4.513398E+07	   3.328341E+07	  -1.260906E+06	   1.212084E+07	  -1.293621E+00	  -4.829195E+00	   2.006568E-03	  -1.383027E-05	   3.254373E-02	  -1.832597E+00	   1.303456E-03	  -2.632675E-03	   7.792749E-03	  -2.480618E-03	   7.410700E-04	  -3.537939E-06	  -1.114653E-02	  -3.759814E-02	   1.065942E-02	  -4.301559E-03	   1.067626E-03	  -3.854018E-05	  -1.879319E+05	   1.659094E+05	  -1.057389E+05	  -1.252312E+06	   7.112732E+06	   1.162882E+07	   0.000000E+00	   0.000000E+00	   1.398835E+08	   1.196908E+07	  -3.201665E+06	   0.000000E+00	   1.650340E+05	   6.202021E+05	  -1.571637E+05	   3.438418E+07	  -8.688821E+06	   1.885018E+05
    0.4625	   1.166289E-01	   2.635692E+05	   1.787341E+06	   4.513270E+07	   3.304617E+07	  -5.714370E+05	   1.229512E+07	  -1.293605E+00	  -4.829231E+00	   2.104806E-03	  -1.474457E-05	   3.251104E-02	  -1.832597E+00	   1.151255E-03	  -3.108320E-03	   7.925046E-03	  -2.534059E-03	   7.538866E-04	  -4.052386E-06	  -1.354089E-02	  -3.812731E-02	   1.053835E-02	  -4.266016E-03	   9.678338E-04	  -4.477827E-05	  -1.840223E+05	   1.665444E+05	  -1.088542E+05	  -1.190529E+06	   7.037628E+06	   1.173957E+07	   0.000000E+00	   0.000000E+00	   1.398831E+08	   1.195715E+07	  -3.198108E+06	   0.000000E+00	   1.722084E+05	   6.213492E+05	  -1.554073E+05	   3.418284E+07	  -8.175369E+06	   2.189829E+05
    0.4750	   1.146930E-01	   2.811183E+05	   1.790964E+06	   4.513104E+07	   3.272104E+07	   5.292734E+04	   1.245534E+07	  -1.293592E+00	  -4.829273E+00	   2.204690E-03	  -1.563417E-05	   3.247767E-02	  -1.832597E+00	   9.701568E-04	  -3.592073E-03	   8.055931E-03	  -2.586995E-03	   7.654920E-04	  -4.638076E-06	  -1.568941E-02	  -3.894415E-02	   1.043099E-02	  -4.218806E-03	   8.772218E-04	  -4.970907E-05	  -1.801127E+05	   1.671795E+05	  -1.119695E+05	  -1.128745E+06	   6.962525E+06	   1.185031E+07	   0.000000E+00	   0.000000E+00	   1.398827E+08	   1.194496E+07	  -3.194494E+06	   0.000000E+00	   1.785789E+05	   6.234023E+05	  -1.538525E+05	   3.392216E+07	  -7.707282E+06	   2.431144E+05
    0.4875	   1.127571E-01	   2.962450E+05	   1.797629E+06	   4.512913E+07	   3.226610E+07	   5.871736E+05	   1.259772E+07	  -1.293581E+00	  -4.829321E+00	   2.306201E-03	  -1.648711E-05	   3.244362E-02	  -1.832597E+00	   7.636126E-04	  -4.088216E-03	   8.185553E-03	  -2.639257E-03	   7.760142E-04	  -5.276674E-06	  -1.750432E-02	  -4.020034E-02	   1.033071E-02	  -4.154142E-03	   7.991924E-04	  -5.296262E-05	  -1.762030E+05	   1.678145E+05	  -1.150848E+05	  -1.066962E+06	   6.887422E+06	   1.196105E+07	   0.000000E+00	   0.000000E+00	   1.398823E+08	   1.193253E+07	  -3.190826E+06	   0.000000E+00	   1.838665E+05	   6.268529E+05	  -1.524022E+05	   3.357331E+07	  -7.301634E+06	   2.590977E+05
    0.5000	   1.108213E-01	   3.086793E+05	   1.808017E+06	   4.512706E+07	   3.165473E+07	   1.019384E+06	   1.272080E+07	  -1.293573E+00	  -4.829376E+00	   2.409325E-03	  -1.729385E-05	   3.240892E-02	  -1.832597E+00	   5.359309E-04	  -4.602786E-03	   8.313969E-03	  -2.690605E-03	   7.856153E-04	  -5.946798E-06	  -1.894590E-02	  -4.199095E-02	   1.023355E-02	  -4.068374E-03	   7.353278E-04	  -5.438782E-05	  -1.722934E+05	   1.684495E+05	  -1.182001E+05	  -1.005178E+06	   6.812320E+06	   1.207180E+07	   0.000000E+00	   0.000000E+00	   1.398819E+08	   1.191984E+07	  -3.187111E+06	   0.000000E+00	   1.879492E+05	   6.320069E+05	  -1.509980E+05	   3.311805E+07	  -6.966452E+06	   2.661992E+05