<?xml version="1.0"?>
<VTKFile type="PolyData" version="0.1" byte_order="LittleEndian">
  <PolyData>
    <Piece NumberOfPoints="      2" NumberOfVerts="  0" NumberOfLines="      1"
           NumberOfStrips="  0" NumberOfPolys="      0">
      <Points>
        <DataArray type="Float32" NumberOfComponents="3" format="ascii">
                      -9.25684                       5.87785                      98.05938
                      -7.84663                      17.63356                     114.17815
        </DataArray>
      </Points>
      <PointData>
        <DataArray type="Float32" Name="TranslationalVelocity" NumberOfComponents="3" format="ascii">
                       0.53647                      -8.47201                       6.13185
                       1.60940                     -25.41602                      18.39555
        </DataArray>
        <DataArray type="Float32" Name="RotationalVelocity" NumberOfComponents="3" format="ascii">
                       1.04321                       0.00000                      -0.09127
                       1.04321                       0.00000                      -0.09127
        </DataArray>
        <DataArray type="Float32" Name="TranslationalAcceleration" NumberOfComponents="3" format="ascii">
                      -0.77323                      -6.44579                      -8.83810
                      -2.31970                     -19.33736                     -26.51431
        </DataArray>
        <DataArray type="Float32" Name="OrientationX" NumberOfComponents="3" format="ascii">
                       0.99619                       0.00000                      -0.08716
                       0.99619                       0.00000                      -0.08716
        </DataArray>
        <DataArray type="Float32" Name="OrientationY" NumberOfComponents="3" format="ascii">
                      -0.05123                       0.80902                      -0.58555
                      -0.05123                       0.80902                      -0.58555
        </DataArray>
        <DataArray type="Float32" Name="OrientationZ" NumberOfComponents="3" format="ascii">
                       0.07051                       0.58779                       0.80594
                       0.07051                       0.58779                       0.80594
        </DataArray>
        <DataArray type="Float32" Name="Force" NumberOfComponents="3" format="ascii">
                     187.79933                     -24.30217                       1.29369
                    1056.42846                     -51.20248                     -55.08264
        </DataArray>
        <DataArray type="Float32" Name="Moment" NumberOfComponents="3" format="ascii">
                      -2.24715                     -18.73260                     -25.68510
                     -20.35830                    -169.70965                    -232.69643
        </DataArray>
      </PointData>
      <Lines>
        <DataArray type="Int32" Name="connectivity" format="ascii">
      0      1
        </DataArray>
        <DataArray type="Int32" Name="offsets" format="ascii">
      2
        </DataArray>
      </Lines>
    </Piece>
  </PolyData>
</VTKFile>
