<?xml version="1.0"?>
<VTKFile type="PolyData" version="0.1" byte_order="LittleEndian">
  <PolyData>
    <Piece NumberOfPoints="      2" NumberOfVerts="  0" NumberOfLines="      1"
           NumberOfStrips="  0" NumberOfPolys="      0">
      <Points>
        <DataArray type="Float32" NumberOfComponents="3" format="ascii">
                     -10.83350                       0.00000                      80.03805
                     -12.57662                       0.00000                      60.11416
        </DataArray>
      </Points>
      <PointData>
        <DataArray type="Float32" Name="TranslationalVelocity" NumberOfComponents="3" format="ascii">
                       0.00000                      10.47198                       0.00000
                       0.00000                      31.41593                       0.00000
        </DataArray>
        <DataArray type="Float32" Name="RotationalVelocity" NumberOfComponents="3" format="ascii">
                       1.04321                       0.00000                      -0.09127
                       1.04321                       0.00000                      -0.09127
        </DataArray>
        <DataArray type="Float32" Name="TranslationalAcceleration" NumberOfComponents="3" format="ascii">
                       0.95577                      -0.00000                      10.92450
                       2.86731                      -0.00000                      32.77349
        </DataArray>
        <DataArray type="Float32" Name="OrientationX" NumberOfComponents="3" format="ascii">
                       0.99619                       0.00000                      -0.08716
                       0.99619                       0.00000                      -0.08716
        </DataArray>
        <DataArray type="Float32" Name="OrientationY" NumberOfComponents="3" format="ascii">
                      -0.00000                      -1.00000                      -0.00000
                      -0.00000                      -1.00000                      -0.00000
        </DataArray>
        <DataArray type="Float32" Name="OrientationZ" NumberOfComponents="3" format="ascii">
                      -0.08716                       0.00000                      -0.99619
                      -0.08716                       0.00000                      -0.99619
        </DataArray>
        <DataArray type="Float32" Name="Force" NumberOfComponents="3" format="ascii">
                     174.57899                      24.00076                     -15.27368
                     827.59465                      24.56384                     -72.40515
        </DataArray>
        <DataArray type="Float32" Name="Moment" NumberOfComponents="3" format="ascii">
                       2.79307                      -0.00000                      31.92492
                      23.88326                      -0.00000                     272.98689
        </DataArray>
      </PointData>
      <Lines>
        <DataArray type="Int32" Name="connectivity" format="ascii">
      0      1
        </DataArray>
        <DataArray type="Int32" Name="offsets" format="ascii">
      2
        </DataArray>
      </Lines>
    </Piece>
  </PolyData>
</VTKFile>
