
Predictions were generated on 10-Mar-2020 at 13:04:06 using OpenFAST, compiled as a 64-bit application using double precision at commit v1.0.0-450-g6bd2e0a4
 linked with  NWTC Subroutine Library; ElastoDyn; InflowWind; AeroDyn; ServoDyn

Description from the FAST input file: FAST Certification Test #02: AWT-27CR2 with many DOFs with startup and shutdown and steady wind

Time      	Wind1VelX 	Wind1VelY 	Wind1VelZ 	Spn1ALxb1 	Spn1ALyb1 	Spn1ALzb1 	RotSpeed  	LSSGagVxa 	RootFxb1  	RootFyb1  	RootFxb2  	RootFyb2  	RootMIP2  	RootMOoP2 	Spn1MLxb1 	Spn1MLyb1 	RotTorq   	LSSTipMys 	LSSTipMzs 	LSSGagMya 	LSSGagMza 	HSShftTq  	HSSBrTq   	HSShftPwr 	GenTq     	GenPwr    
(s)       	(m/s)     	(m/s)     	(m/s)     	(m/s^2)   	(m/s^2)   	(m/s^2)   	(rpm)     	(rpm)     	(kN)      	(kN)      	(kN)      	(kN)      	(kN-m)    	(kN-m)    	(kN-m)    	(kN-m)    	(kN-m)    	(kN-m)    	(kN-m)    	(kN-m)    	(kN-m)    	(kN-m)    	(kN-m)    	(kW)      	(kN-m)    	(kW)      
    5.0000	 1.200E+01	 0.000E+00	 0.000E+00	 2.556E-02	 7.360E-03	-1.381E-02	 1.838E-01	 1.838E-01	 3.281E+00	-3.251E-01	 2.892E+00	 1.365E-01	-1.049E+00	 1.532E+01	-1.934E-01	 3.857E+00	 3.569E-02	 3.534E+00	-3.374E-01	 8.023E+00	-7.640E-01	 1.586E-03	 0.000E+00	 6.870E-04	 0.000E+00	 0.000E+00
    5.0400	 1.200E+01	 0.000E+00	 0.000E+00	 2.638E-02	 8.184E-03	-8.636E-03	 1.843E-01	 1.843E-01	 3.289E+00	-3.287E-01	 2.903E+00	 1.392E-01	-1.061E+00	 1.539E+01	-1.904E-01	 3.879E+00	 3.847E-02	 3.518E+00	-3.453E-01	 8.007E+00	-7.769E-01	 1.710E-03	 0.000E+00	 7.424E-04	 0.000E+00	 0.000E+00
    5.0800	 1.200E+01	 0.000E+00	 0.000E+00	 2.572E-02	 8.730E-03	-6.419E-03	 1.848E-01	 1.848E-01	 3.297E+00	-3.323E-01	 2.914E+00	 1.421E-01	-1.074E+00	 1.545E+01	-1.874E-01	 3.894E+00	 3.854E-02	 3.501E+00	-3.518E-01	 7.991E+00	-7.885E-01	 1.713E-03	 0.000E+00	 7.458E-04	 0.000E+00	 0.000E+00
    5.1200	 1.200E+01	 0.000E+00	 0.000E+00	 2.472E-02	 9.081E-03	-7.326E-03	 1.852E-01	 1.852E-01	 3.305E+00	-3.357E-01	 2.923E+00	 1.452E-01	-1.089E+00	 1.549E+01	-1.842E-01	 3.900E+00	 3.509E-02	 3.485E+00	-3.566E-01	 7.975E+00	-7.984E-01	 1.559E-03	 0.000E+00	 6.806E-04	 0.000E+00	 0.000E+00
    5.1600	 1.200E+01	 0.000E+00	 0.000E+00	 2.286E-02	 9.205E-03	-1.126E-02	 1.856E-01	 1.857E-01	 3.312E+00	-3.390E-01	 2.933E+00	 1.484E-01	-1.106E+00	 1.552E+01	-1.807E-01	 3.899E+00	 2.865E-02	 3.469E+00	-3.598E-01	 7.958E+00	-8.067E-01	 1.273E-03	 0.000E+00	 5.570E-04	 0.000E+00	 0.000E+00
    5.2000	 1.200E+01	 0.000E+00	 0.000E+00	 1.837E-02	 8.988E-03	-1.788E-02	 1.859E-01	 1.860E-01	 3.319E+00	-3.423E-01	 2.943E+00	 1.516E-01	-1.123E+00	 1.554E+01	-1.772E-01	 3.895E+00	 2.089E-02	 3.454E+00	-3.624E-01	 7.943E+00	-8.144E-01	 9.283E-04	 0.000E+00	 4.067E-04	 0.000E+00	 0.000E+00
    5.2400	 1.200E+01	 0.000E+00	 0.000E+00	 9.103E-03	 8.303E-03	-2.663E-02	 1.862E-01	 1.862E-01	 3.329E+00	-3.457E-01	 2.955E+00	 1.548E-01	-1.141E+00	 1.558E+01	-1.740E-01	 3.895E+00	 1.387E-02	 3.440E+00	-3.653E-01	 7.928E+00	-8.225E-01	 6.163E-04	 0.000E+00	 2.704E-04	 0.000E+00	 0.000E+00
    5.2800	 1.200E+01	 0.000E+00	 0.000E+00	-6.406E-03	 7.081E-03	-3.685E-02	 1.863E-01	 1.863E-01	 3.343E+00	-3.492E-01	 2.971E+00	 1.579E-01	-1.157E+00	 1.564E+01	-1.713E-01	 3.905E+00	 9.326E-03	 3.427E+00	-3.696E-01	 7.915E+00	-8.321E-01	 4.145E-04	 0.000E+00	 1.820E-04	 0.000E+00	 0.000E+00
    5.3200	 1.200E+01	 0.000E+00	 0.000E+00	-2.812E-02	 5.372E-03	-4.780E-02	 1.864E-01	 1.864E-01	 3.359E+00	-3.531E-01	 2.989E+00	 1.608E-01	-1.171E+00	 1.573E+01	-1.691E-01	 3.926E+00	 8.044E-03	 3.414E+00	-3.757E-01	 7.903E+00	-8.434E-01	 3.575E-04	 0.000E+00	 1.570E-04	 0.000E+00	 0.000E+00
    5.3600	 1.200E+01	 0.000E+00	 0.000E+00	-5.424E-02	 3.353E-03	-5.879E-02	 1.866E-01	 1.865E-01	 3.379E+00	-3.571E-01	 3.011E+00	 1.636E-01	-1.184E+00	 1.585E+01	-1.673E-01	 3.958E+00	 9.612E-03	 3.403E+00	-3.834E-01	 7.893E+00	-8.565E-01	 4.272E-04	 0.000E+00	 1.878E-04	 0.000E+00	 0.000E+00
    5.4000	 1.200E+01	 0.000E+00	 0.000E+00	-8.154E-02	 1.303E-03	-6.917E-02	 1.867E-01	 1.867E-01	 3.400E+00	-3.612E-01	 3.033E+00	 1.662E-01	-1.197E+00	 1.597E+01	-1.658E-01	 3.994E+00	 1.263E-02	 3.393E+00	-3.918E-01	 7.884E+00	-8.704E-01	 5.615E-04	 0.000E+00	 2.470E-04	 0.000E+00	 0.000E+00
    5.4400	 1.200E+01	 0.000E+00	 0.000E+00	-1.063E-01	-4.681E-04	-7.838E-02	 1.869E-01	 1.869E-01	 3.419E+00	-3.653E-01	 3.055E+00	 1.689E-01	-1.209E+00	 1.609E+01	-1.642E-01	 4.029E+00	 1.526E-02	 3.384E+00	-4.001E-01	 7.875E+00	-8.841E-01	 6.783E-04	 0.000E+00	 2.987E-04	 0.000E+00	 0.000E+00
    5.4800	 1.200E+01	 0.000E+00	 0.000E+00	-1.251E-01	-1.691E-03	-8.595E-02	 1.871E-01	 1.871E-01	 3.436E+00	-3.693E-01	 3.073E+00	 1.717E-01	-1.223E+00	 1.618E+01	-1.622E-01	 4.056E+00	 1.587E-02	 3.375E+00	-4.073E-01	 7.867E+00	-8.967E-01	 7.053E-04	 0.000E+00	 3.109E-04	 0.000E+00	 0.000E+00
    5.5200	 1.200E+01	 0.000E+00	 0.000E+00	-1.359E-01	-2.204E-03	-9.146E-02	 1.872E-01	 1.873E-01	 3.448E+00	-3.730E-01	 3.087E+00	 1.747E-01	-1.238E+00	 1.625E+01	-1.596E-01	 4.071E+00	 1.360E-02	 3.366E+00	-4.128E-01	 7.859E+00	-9.077E-01	 6.044E-04	 0.000E+00	 2.667E-04	 0.000E+00	 0.000E+00
    5.5600	 1.200E+01	 0.000E+00	 0.000E+00	-1.386E-01	-1.976E-03	-9.459E-02	 1.874E-01	 1.874E-01	 3.456E+00	-3.765E-01	 3.097E+00	 1.778E-01	-1.254E+00	 1.628E+01	-1.563E-01	 4.076E+00	 8.606E-03	 3.358E+00	-4.167E-01	 7.850E+00	-9.171E-01	 3.825E-04	 0.000E+00	 1.689E-04	 0.000E+00	 0.000E+00
    5.6000	 1.200E+01	 0.000E+00	 0.000E+00	-1.342E-01	-1.096E-03	-9.511E-02	 1.874E-01	 1.875E-01	 3.461E+00	-3.798E-01	 3.103E+00	 1.811E-01	-1.271E+00	 1.630E+01	-1.526E-01	 4.072E+00	 1.929E-03	 3.349E+00	-4.196E-01	 7.840E+00	-9.254E-01	 8.575E-05	 0.000E+00	 3.788E-05	 0.000E+00	 0.000E+00
    5.6400	 1.200E+01	 0.000E+00	 0.000E+00	-1.251E-01	 2.751E-04	-9.293E-02	 1.874E-01	 1.875E-01	 3.464E+00	-3.831E-01	 3.107E+00	 1.844E-01	-1.287E+00	 1.630E+01	-1.486E-01	 4.066E+00	-4.935E-03	 3.340E+00	-4.224E-01	 7.831E+00	-9.335E-01	-2.194E-04	 0.000E+00	-9.688E-05	 0.000E+00	 0.000E+00
    5.6800	 1.200E+01	 0.000E+00	 0.000E+00	-1.134E-01	 1.959E-03	-8.808E-02	 1.873E-01	 1.873E-01	 3.465E+00	-3.864E-01	 3.110E+00	 1.876E-01	-1.304E+00	 1.630E+01	-1.445E-01	 4.061E+00	-1.060E-02	 3.331E+00	-4.258E-01	 7.820E+00	-9.423E-01	-4.712E-04	 0.000E+00	-2.080E-04	 0.000E+00	 0.000E+00
    5.7200	 1.200E+01	 0.000E+00	 0.000E+00	-1.009E-01	 3.815E-03	-8.082E-02	 1.872E-01	 1.872E-01	 3.467E+00	-3.898E-01	 3.114E+00	 1.908E-01	-1.319E+00	 1.631E+01	-1.405E-01	 4.062E+00	-1.428E-02	 3.322E+00	-4.304E-01	 7.810E+00	-9.521E-01	-6.345E-04	 0.000E+00	-2.799E-04	 0.000E+00	 0.000E+00
    5.7600	 1.200E+01	 0.000E+00	 0.000E+00	-8.839E-02	 5.767E-03	-7.155E-02	 1.870E-01	 1.870E-01	 3.469E+00	-3.932E-01	 3.117E+00	 1.939E-01	-1.333E+00	 1.633E+01	-1.366E-01	 4.067E+00	-1.600E-02	 3.312E+00	-4.362E-01	 7.799E+00	-9.631E-01	-7.112E-04	 0.000E+00	-3.134E-04	 0.000E+00	 0.000E+00
    5.8000	 1.200E+01	 0.000E+00	 0.000E+00	-7.554E-02	 7.797E-03	-6.088E-02	 1.868E-01	 1.868E-01	 3.471E+00	-3.967E-01	 3.121E+00	 1.969E-01	-1.346E+00	 1.635E+01	-1.328E-01	 4.076E+00	-1.658E-02	 3.301E+00	-4.428E-01	 7.788E+00	-9.748E-01	-7.367E-04	 0.000E+00	-3.242E-04	 0.000E+00	 0.000E+00
    5.8400	 1.200E+01	 0.000E+00	 0.000E+00	-6.169E-02	 9.918E-03	-4.949E-02	 1.866E-01	 1.866E-01	 3.472E+00	-4.002E-01	 3.124E+00	 1.998E-01	-1.359E+00	 1.638E+01	-1.289E-01	 4.084E+00	-1.721E-02	 3.290E+00	-4.493E-01	 7.775E+00	-9.864E-01	-7.649E-04	 0.000E+00	-3.362E-04	 0.000E+00	 0.000E+00
    5.8800	 1.200E+01	 0.000E+00	 0.000E+00	-4.622E-02	 1.213E-02	-3.814E-02	 1.863E-01	 1.863E-01	 3.472E+00	-4.036E-01	 3.126E+00	 2.029E-01	-1.373E+00	 1.639E+01	-1.249E-01	 4.088E+00	-1.906E-02	 3.278E+00	-4.552E-01	 7.762E+00	-9.972E-01	-8.470E-04	 0.000E+00	-3.719E-04	 0.000E+00	 0.000E+00
    5.9200	 1.200E+01	 0.000E+00	 0.000E+00	-2.919E-02	 1.440E-02	-2.754E-02	 1.861E-01	 1.861E-01	 3.471E+00	-4.068E-01	 3.127E+00	 2.060E-01	-1.387E+00	 1.639E+01	-1.206E-01	 4.085E+00	-2.279E-02	 3.265E+00	-4.600E-01	 7.748E+00	-1.007E+00	-1.013E-03	 0.000E+00	-4.441E-04	 0.000E+00	 0.000E+00
    5.9600	 1.200E+01	 0.000E+00	 0.000E+00	-1.161E-02	 1.662E-02	-1.831E-02	 1.857E-01	 1.858E-01	 3.469E+00	-4.099E-01	 3.127E+00	 2.093E-01	-1.403E+00	 1.638E+01	-1.162E-01	 4.078E+00	-2.836E-02	 3.252E+00	-4.638E-01	 7.733E+00	-1.015E+00	-1.261E-03	 0.000E+00	-5.517E-04	 0.000E+00	 0.000E+00
    6.0000	 1.200E+01	 0.000E+00	 0.000E+00	 4.732E-03	 1.863E-02	-1.098E-02	 1.853E-01	 1.854E-01	 3.467E+00	-4.130E-01	 3.128E+00	 2.126E-01	-1.419E+00	 1.636E+01	-1.117E-01	 4.068E+00	-3.506E-02	 3.238E+00	-4.668E-01	 7.717E+00	-1.023E+00	-1.558E-03	 0.000E+00	-6.806E-04	-1.104E+01	-3.045E+03
    6.0400	 1.200E+01	 0.000E+00	 0.000E+00	 1.614E-01	-2.783E+01	-9.803E-02	 1.799E+00	 2.472E+00	 4.697E+00	 1.037E+01	 4.361E+00	 1.286E+01	-8.943E+01	 2.460E+01	-2.410E+01	 3.784E+00	-1.636E+02	-4.669E+00	 9.765E+01	 7.771E+00	 9.670E+01	-7.273E+00	 0.000E+00	-4.237E+01	-1.131E+01	-3.046E+03
    6.0800	 1.200E+01	 0.000E+00	 0.000E+00	 6.300E+00	-2.898E+01	-6.084E-01	 3.373E+00	 3.401E+00	 3.523E+00	 1.109E+01	 3.262E+00	 1.348E+01	-9.577E+01	 1.801E+01	-2.557E+01	 3.128E+00	-1.740E+02	-6.330E+00	 1.048E+02	 7.613E+00	 1.042E+02	-7.734E+00	 0.000E+00	-6.198E+01	-1.142E+01	-3.046E+03
    6.1200	 1.200E+01	 0.000E+00	 0.000E+00	 3.383E+00	-2.119E+01	-1.307E+00	 5.157E+00	 4.923E+00	 3.298E+00	 7.577E+00	 3.093E+00	 9.036E+00	-5.871E+01	 1.396E+01	-1.525E+01	 1.432E+00	-1.102E+02	-4.181E+00	 6.696E+01	 7.542E+00	 6.634E+01	-4.898E+00	 0.000E+00	-5.682E+01	-1.160E+01	-3.045E+03
    6.1600	 1.200E+01	 0.000E+00	 0.000E+00	 5.526E-01	-2.114E+01	-2.236E+00	 6.858E+00	 6.898E+00	 3.610E+00	 7.426E+00	 3.343E+00	 9.868E+00	-6.505E+01	 1.429E+01	-1.632E+01	-6.832E-02	-1.179E+02	-6.715E+00	 7.087E+01	 7.275E+00	 6.995E+01	-5.239E+00	 0.000E+00	-8.515E+01	-1.184E+01	-3.043E+03
    6.2000	 1.200E+01	 0.000E+00	 0.000E+00	 5.834E+00	-2.375E+01	-3.456E+00	 8.536E+00	 8.635E+00	 2.793E+00	 8.576E+00	 2.521E+00	 1.206E+01	-8.327E+01	 1.082E+01	-1.920E+01	-1.696E-01	-1.441E+02	-1.204E+01	 8.601E+01	 6.691E+00	 8.549E+01	-6.403E+00	 0.000E+00	-1.303E+02	-1.206E+01	-3.039E+03
    6.2400	 1.200E+01	 0.000E+00	 0.000E+00	 5.400E+00	-2.548E+01	-4.844E+00	 1.027E+01	 1.026E+01	 3.010E+00	 9.056E+00	 2.896E+00	 1.179E+01	-8.029E+01	 1.309E+01	-1.991E+01	 3.254E-01	-1.435E+02	-1.619E+01	 8.622E+01	 6.220E+00	 8.660E+01	-6.376E+00	 0.000E+00	-1.542E+02	-1.227E+01	-3.035E+03
    6.2800	 1.200E+01	 0.000E+00	 0.000E+00	 2.847E+00	-2.522E+01	-6.755E+00	 1.206E+01	 1.204E+01	 3.631E+00	 8.595E+00	 3.693E+00	 1.134E+01	-7.504E+01	 1.805E+01	-1.944E+01	 1.258E+00	-1.361E+02	-1.999E+01	 8.086E+01	 5.445E+00	 8.190E+01	-6.050E+00	 0.000E+00	-1.716E+02	-1.249E+01	-3.028E+03
    6.3200	 1.200E+01	 0.000E+00	 0.000E+00	 4.719E+00	-2.408E+01	-9.024E+00	 1.389E+01	 1.391E+01	 3.493E+00	 7.882E+00	 3.671E+00	 1.238E+01	-8.244E+01	 1.993E+01	-1.793E+01	 2.638E+00	-1.394E+02	-2.548E+01	 7.930E+01	 4.250E+00	 8.134E+01	-6.197E+00	 0.000E+00	-2.031E+02	-1.273E+01	-3.019E+03
    6.3600	 1.200E+01	 0.000E+00	 0.000E+00	 4.901E+00	-2.546E+01	-1.130E+01	 1.572E+01	 1.576E+01	 3.697E+00	 8.171E+00	 4.061E+00	 1.320E+01	-8.853E+01	 2.353E+01	-1.867E+01	 3.628E+00	-1.477E+02	-3.326E+01	 8.116E+01	 2.982E+00	 8.561E+01	-6.566E+00	 0.000E+00	-2.438E+02	-1.296E+01	-3.007E+03
    6.4000	 1.200E+01	 0.000E+00	 0.000E+00	 4.507E+00	-2.808E+01	-1.415E+01	 1.757E+01	 1.759E+01	 3.949E+00	 8.943E+00	 4.592E+00	 1.315E+01	-8.666E+01	 2.699E+01	-2.116E+01	 3.864E+00	-1.523E+02	-4.189E+01	 8.088E+01	 1.275E+00	 8.896E+01	-6.769E+00	 0.000E+00	-2.805E+02	-1.319E+01	-2.992E+03
    6.4400	 1.200E+01	 0.000E+00	 0.000E+00	 6.571E+00	-2.854E+01	-1.785E+01	 1.943E+01	 1.945E+01	 3.520E+00	 8.866E+00	 4.429E+00	 1.356E+01	-8.807E+01	 2.657E+01	-2.142E+01	 3.439E+00	-1.548E+02	-5.001E+01	 7.629E+01	-1.140E+00	 8.862E+01	-6.881E+00	 0.000E+00	-3.153E+02	-1.342E+01	-2.973E+03
    6.4800	 1.200E+01	 0.000E+00	 0.000E+00	 7.717E+00	-2.846E+01	-2.181E+01	 2.129E+01	 2.132E+01	 3.084E+00	 8.520E+00	 4.270E+00	 1.459E+01	-9.533E+01	 2.576E+01	-2.059E+01	 2.375E+00	-1.612E+02	-5.893E+01	 7.081E+01	-3.942E+00	 8.886E+01	-7.164E+00	 0.000E+00	-3.598E+02	-1.364E+01	-2.950E+03
    6.5200	 1.200E+01	 0.000E+00	 0.000E+00	 8.692E+00	-3.053E+01	-2.609E+01	 2.310E+01	 2.314E+01	 2.728E+00	 9.034E+00	 4.329E+00	 1.527E+01	-9.937E+01	 2.562E+01	-2.190E+01	 1.090E+00	-1.704E+02	-6.966E+01	 6.549E+01	-7.088E+00	 9.188E+01	-7.574E+00	 0.000E+00	-4.130E+02	-1.384E+01	-2.921E+03
    6.5600	 1.200E+01	 0.000E+00	 0.000E+00	 1.136E+01	-3.304E+01	-3.128E+01	 2.488E+01	 2.491E+01	 2.143E+00	 9.795E+00	 4.218E+00	 1.551E+01	-9.953E+01	 2.509E+01	-2.412E+01	 6.918E-02	-1.781E+02	-7.981E+01	 5.710E+01	-1.081E+01	 9.388E+01	-7.917E+00	 0.000E+00	-4.647E+02	-1.401E+01	-2.888E+03
    6.6000	 1.200E+01	 0.000E+00	 0.000E+00	 1.301E+01	-3.402E+01	-3.729E+01	 2.660E+01	 2.663E+01	 1.728E+00	 9.864E+00	 4.283E+00	 1.625E+01	-1.041E+02	 2.629E+01	-2.439E+01	-4.954E-01	-1.857E+02	-8.752E+01	 4.470E+01	-1.507E+01	 9.300E+01	-8.255E+00	 0.000E+00	-5.180E+02	-1.415E+01	-2.849E+03
    6.6400	 1.200E+01	 0.000E+00	 0.000E+00	 1.397E+01	-3.493E+01	-4.371E+01	 2.825E+01	 2.829E+01	 1.521E+00	 9.844E+00	 4.681E+00	 1.711E+01	-1.100E+02	 2.939E+01	-2.418E+01	-4.759E-01	-1.940E+02	-9.287E+01	 2.979E+01	-1.960E+01	 9.099E+01	-8.624E+00	 0.000E+00	-5.748E+02	-1.426E+01	-2.805E+03
    6.6800	 1.200E+01	 0.000E+00	 0.000E+00	 1.649E+01	-3.705E+01	-5.074E+01	 2.982E+01	 2.986E+01	 1.176E+00	 1.046E+01	 5.155E+00	 1.739E+01	-1.114E+02	 3.248E+01	-2.586E+01	 1.078E-02	-2.027E+02	-9.623E+01	 1.362E+01	-2.429E+01	 8.942E+01	-9.009E+00	 0.000E+00	-6.338E+02	-1.433E+01	-2.755E+03
    6.7200	 1.200E+01	 0.000E+00	 0.000E+00	 1.976E+01	-3.883E+01	-5.862E+01	 3.130E+01	 3.134E+01	 6.348E-01	 1.106E+01	 5.488E+00	 1.749E+01	-1.115E+02	 3.437E+01	-2.762E+01	 3.405E-01	-2.104E+02	-9.531E+01	-3.856E+00	-2.901E+01	 8.617E+01	-9.351E+00	 0.000E+00	-6.905E+02	-1.436E+01	-2.701E+03
    6.7600	 1.200E+01	 0.000E+00	 0.000E+00	 2.262E+01	-3.934E+01	-6.716E+01	 3.271E+01	 3.274E+01	-4.167E-02	 1.119E+01	 5.541E+00	 1.765E+01	-1.124E+02	 3.432E+01	-2.793E+01	-1.757E-01	-2.155E+02	-8.831E+01	-2.155E+01	-3.354E+01	 7.977E+01	-9.578E+00	 0.000E+00	-7.388E+02	-1.435E+01	-2.641E+03
    6.8000	 1.200E+01	 0.000E+00	 0.000E+00	 2.560E+01	-3.973E+01	-7.607E+01	 3.406E+01	 3.407E+01	-8.810E-01	 1.137E+01	 5.240E+00	 1.753E+01	-1.113E+02	 3.199E+01	-2.825E+01	-1.687E+00	-2.187E+02	-7.668E+01	-3.746E+01	-3.771E+01	 7.199E+01	-9.719E+00	 0.000E+00	-7.803E+02	-1.428E+01	-2.576E+03
    6.8400	 1.200E+01	 0.000E+00	 0.000E+00	 2.870E+01	-4.023E+01	-8.541E+01	 3.535E+01	 3.535E+01	-1.777E+00	 1.169E+01	 4.755E+00	 1.706E+01	-1.077E+02	 2.841E+01	-2.894E+01	-3.735E+00	-2.201E+02	-6.136E+01	-5.034E+01	-4.155E+01	 6.345E+01	-9.784E+00	 0.000E+00	-8.150E+02	-1.417E+01	-2.505E+03
    6.8800	 1.200E+01	 0.000E+00	 0.000E+00	 3.169E+01	-3.975E+01	-9.517E+01	 3.661E+01	 3.660E+01	-2.702E+00	 1.168E+01	 4.308E+00	 1.649E+01	-1.037E+02	 2.446E+01	-2.858E+01	-5.481E+00	-2.179E+02	-4.214E+01	-5.873E+01	-4.495E+01	 5.302E+01	-9.684E+00	 0.000E+00	-8.351E+02	-1.401E+01	-2.427E+03
    6.9200	 1.200E+01	 0.000E+00	 0.000E+00	 3.476E+01	-3.810E+01	-1.051E+02	 3.788E+01	 3.784E+01	-3.519E+00	 1.126E+01	 3.932E+00	 1.584E+01	-9.971E+01	 2.090E+01	-2.712E+01	-6.422E+00	-2.115E+02	-2.086E+01	-6.128E+01	-4.752E+01	 4.125E+01	-9.398E+00	 0.000E+00	-8.380E+02	-1.378E+01	-2.340E+03
    6.9600	 1.200E+01	 0.000E+00	 0.000E+00	 3.705E+01	-3.621E+01	-1.150E+02	 3.916E+01	 3.912E+01	-3.985E+00	 1.084E+01	 3.836E+00	 1.487E+01	-9.343E+01	 1.909E+01	-2.586E+01	-6.447E+00	-2.019E+02	-6.226E-01	-5.805E+01	-4.906E+01	 2.991E+01	-8.973E+00	 0.000E+00	-8.270E+02	-1.347E+01	-2.239E+03
    7.0000	 1.200E+01	 0.000E+00	 0.000E+00	 3.810E+01	-3.457E+01	-1.250E+02	 4.048E+01	 4.042E+01	-3.795E+00	 1.045E+01	 3.895E+00	 1.358E+01	-8.512E+01	 1.947E+01	-2.452E+01	-5.959E+00	-1.894E+02	 1.644E+01	-4.973E+01	-4.933E+01	 1.971E+01	-8.416E+00	 0.000E+00	-8.016E+02	-1.306E+01	-2.122E+03
    7.0400	 1.200E+01	 0.000E+00	 0.000E+00	 3.890E+01	-3.225E+01	-1.351E+02	 4.186E+01	 4.178E+01	-3.857E+00	 9.727E+00	 3.643E+00	 1.225E+01	-7.709E+01	 1.920E+01	-2.184E+01	-4.920E+00	-1.727E+02	 2.949E+01	-3.744E+01	-4.874E+01	 1.030E+01	-7.678E+00	 0.000E+00	-7.558E+02	-1.251E+01	-1.985E+03
    7.0800	 1.200E+01	 0.000E+00	 0.000E+00	 3.812E+01	-2.890E+01	-1.451E+02	 4.329E+01	 4.319E+01	-3.289E+00	 8.809E+00	 3.673E+00	 1.063E+01	-6.741E+01	 2.101E+01	-1.915E+01	-3.598E+00	-1.525E+02	 3.711E+01	-2.350E+01	-4.719E+01	 2.941E+00	-6.776E+00	 0.000E+00	-6.896E+02	-1.179E+01	-1.824E+03
    7.1200	 1.200E+01	 0.000E+00	 0.000E+00	 3.840E+01	-2.611E+01	-1.547E+02	 4.472E+01	 4.463E+01	-2.780E+00	 8.403E+00	 3.824E+00	 8.531E+00	-5.459E+01	 2.226E+01	-1.827E+01	-1.715E+00	-1.332E+02	 3.880E+01	-1.086E+01	-4.454E+01	-9.464E-01	-5.919E+00	 0.000E+00	-6.223E+02	-1.087E+01	-1.640E+03
    7.1600	 1.200E+01	 0.000E+00	 0.000E+00	 3.878E+01	-2.215E+01	-1.638E+02	 4.611E+01	 4.602E+01	-2.157E+00	 7.915E+00	 3.848E+00	 6.396E+00	-4.224E+01	 2.306E+01	-1.764E+01	 2.809E-01	-1.139E+02	 3.574E+01	-3.522E-01	-4.052E+01	-2.640E+00	-5.063E+00	 0.000E+00	-5.489E+02	-9.789E+00	-1.438E+03
    7.2000	 1.200E+01	 0.000E+00	 0.000E+00	 3.786E+01	-1.895E+01	-1.716E+02	 4.739E+01	 4.731E+01	-1.283E+00	 7.774E+00	 4.291E+00	 4.131E+00	-2.945E+01	 2.414E+01	-1.766E+01	 2.345E+00	-9.695E+01	 2.924E+01	 6.355E+00	-3.509E+01	-2.007E+00	-4.309E+00	 0.000E+00	-4.803E+02	-8.584E+00	-1.231E+03
    7.2400	 1.200E+01	 0.000E+00	 0.000E+00	 3.800E+01	-1.651E+01	-1.789E+02	 4.857E+01	 4.847E+01	-6.127E-01	 7.254E+00	 4.223E+00	 2.316E+00	-1.948E+01	 2.307E+01	-1.474E+01	 4.282E+00	-7.750E+01	 2.096E+01	 9.527E+00	-2.839E+01	-6.804E-01	-3.444E+00	 0.000E+00	-3.934E+02	-7.320E+00	-1.027E+03
    7.2800	 1.200E+01	 0.000E+00	 0.000E+00	 3.593E+01	-1.268E+01	-1.851E+02	 4.962E+01	 4.953E+01	 4.973E-01	 6.081E+00	 3.849E+00	 1.082E+00	-1.350E+01	 2.372E+01	-1.027E+01	 5.873E+00	-5.714E+01	 1.250E+01	 9.217E+00	-2.069E+01	 7.308E-01	-2.540E+00	 0.000E+00	-2.964E+02	-6.016E+00	-8.269E+02
    7.3200	 1.200E+01	 0.000E+00	 0.000E+00	 3.070E+01	-1.053E+01	-1.902E+02	 5.052E+01	 5.045E+01	 2.425E+00	 5.849E+00	 4.101E+00	-7.226E-01	-2.193E+00	 2.951E+01	-9.914E+00	 7.679E+00	-4.167E+01	 6.876E+00	 4.661E+00	-1.298E+01	 4.412E+00	-1.852E+00	 0.000E+00	-2.201E+02	-4.756E+00	-6.428E+02
    7.3600	 1.200E+01	 0.000E+00	 0.000E+00	 2.696E+01	-9.711E+00	-1.950E+02	 5.125E+01	 5.119E+01	 4.303E+00	 6.157E+00	 4.499E+00	-2.636E+00	 1.073E+01	 3.665E+01	-1.152E+01	 1.027E+01	-3.010E+01	 4.861E+00	-1.453E+00	-5.786E+00	 8.896E+00	-1.338E+00	 0.000E+00	-1.614E+02	-3.644E+00	-4.864E+02
    7.4000	 1.200E+01	 0.000E+00	 0.000E+00	 2.323E+01	-7.110E+00	-1.993E+02	 5.182E+01	 5.178E+01	 5.770E+00	 5.565E+00	 4.770E+00	-3.266E+00	 1.420E+01	 4.224E+01	-1.025E+01	 1.312E+01	-2.071E+01	 3.925E+00	-6.284E+00	 9.126E-01	 1.045E+01	-9.204E-01	 0.000E+00	-1.123E+02	-2.712E+00	-3.592E+02
    7.4400	 1.200E+01	 0.000E+00	 0.000E+00	 2.013E+01	-3.834E+00	-2.026E+02	 5.226E+01	 5.223E+01	 6.433E+00	 4.617E+00	 4.553E+00	-3.097E+00	 1.239E+01	 4.320E+01	-7.834E+00	 1.505E+01	-1.420E+01	 3.905E+00	-1.037E+01	 7.166E+00	 9.997E+00	-6.309E-01	 0.000E+00	-7.764E+01	-1.967E+00	-2.598E+02
    7.4800	 1.200E+01	 0.000E+00	 0.000E+00	 1.888E+01	-2.018E+00	-2.052E+02	 5.257E+01	 5.255E+01	 6.266E+00	 4.191E+00	 3.635E+00	-3.109E+00	 1.283E+01	 3.832E+01	-7.066E+00	 1.477E+01	-1.064E+01	 6.266E+00	-1.381E+01	 1.282E+01	 9.921E+00	-4.729E-01	 0.000E+00	-5.855E+01	-1.409E+00	-1.867E+02
    7.5200	 1.200E+01	 0.000E+00	 0.000E+00	 1.765E+01	-8.746E-01	-2.076E+02	 5.279E+01	 5.278E+01	 5.616E+00	 3.854E+00	 2.300E+00	-3.120E+00	 1.347E+01	 2.943E+01	-6.579E+00	 1.218E+01	-8.102E+00	 9.975E+00	-1.545E+01	 1.741E+01	 9.705E+00	-3.601E-01	 0.000E+00	-4.478E+01	-1.013E+00	-1.353E+02
    7.5600	 1.200E+01	 0.000E+00	 0.000E+00	 1.674E+01	 5.639E-01	-2.096E+02	 5.295E+01	 5.294E+01	 4.666E+00	 3.141E+00	 8.333E-01	-2.726E+00	 1.110E+01	 1.888E+01	-5.021E+00	 8.486E+00	-5.694E+00	 1.333E+01	-1.523E+01	 2.063E+01	 8.397E+00	-2.531E-01	 0.000E+00	-3.156E+01	-7.268E-01	-9.865E+01
    7.6000	 1.200E+01	 0.000E+00	 0.000E+00	 1.701E+01	 1.464E+00	-2.110E+02	 5.307E+01	 5.306E+01	 3.608E+00	 2.476E+00	-4.419E-01	-2.378E+00	 9.608E+00	 9.473E+00	-3.673E+00	 5.302E+00	-2.879E+00	 1.640E+01	-1.320E+01	 2.261E+01	 7.142E+00	-1.280E-01	 0.000E+00	-1.600E+01	-5.088E-01	-7.084E+01
    7.6400	 1.200E+01	 0.000E+00	 0.000E+00	 1.741E+01	 1.457E+00	-2.120E+02	 5.319E+01	 5.316E+01	 3.029E+00	 1.944E+00	-1.027E+00	-2.351E+00	 1.119E+01	 4.944E+00	-3.099E+00	 3.559E+00	 1.653E+00	 1.869E+01	-9.453E+00	 2.342E+01	 6.398E+00	 7.348E-02	 0.000E+00	 9.204E+00	-3.127E-01	-4.595E+01
    7.6800	 1.200E+01	 0.000E+00	 0.000E+00	 1.724E+01	 1.479E+00	-2.127E+02	 5.331E+01	 5.328E+01	 3.147E+00	 1.110E+00	-8.186E-01	-2.254E+00	 1.236E+01	 6.622E+00	-2.040E+00	 3.610E+00	 8.063E+00	 1.901E+01	-5.309E+00	 2.305E+01	 5.053E+00	 3.584E-01	 0.000E+00	 4.499E+01	-9.310E-02	-1.822E+01
    7.7200	 1.200E+01	 0.000E+00	 0.000E+00	 1.726E+01	 1.792E+00	-2.130E+02	 5.345E+01	 5.342E+01	 3.755E+00	-5.722E-02	 8.912E-03	-1.899E+00	 1.129E+01	 1.337E+01	-3.817E-01	 5.365E+00	 1.464E+01	 1.739E+01	-2.078E+00	 2.161E+01	 2.716E+00	 6.506E-01	 0.000E+00	 8.189E+01	 1.599E-01	 1.354E+01
    7.7600	 1.200E+01	 0.000E+00	 0.000E+00	 1.815E+01	 1.922E+00	-2.127E+02	 5.359E+01	 5.356E+01	 4.526E+00	-1.234E+00	 1.295E+00	-1.450E+00	 9.611E+00	 2.283E+01	 1.020E+00	 8.282E+00	 2.026E+01	 1.468E+01	-7.709E-02	 1.928E+01	-9.577E-03	 9.003E-01	 0.000E+00	 1.136E+02	 4.209E-01	 4.612E+01
    7.8000	 1.200E+01	 0.000E+00	 0.000E+00	 2.035E+01	 1.953E+00	-2.124E+02	 5.372E+01	 5.369E+01	 5.151E+00	-2.396E+00	 2.705E+00	-9.575E-01	 7.802E+00	 3.192E+01	 2.201E+00	 1.142E+01	 2.526E+01	 1.183E+01	 5.250E-01	 1.643E+01	-2.910E+00	 1.123E+00	 0.000E+00	 1.420E+02	 6.728E-01	 7.736E+01
    7.8400	 1.200E+01	 0.000E+00	 0.000E+00	 2.303E+01	 2.200E+00	-2.119E+02	 5.383E+01	 5.381E+01	 5.434E+00	-3.594E+00	 3.795E+00	-2.892E-01	 4.653E+00	 3.822E+01	 3.593E+00	 1.368E+01	 2.907E+01	 9.744E+00	-1.875E-01	 1.342E+01	-6.088E+00	 1.292E+00	 0.000E+00	 1.638E+02	 9.032E-01	 1.058E+02
    7.8800	 1.200E+01	 0.000E+00	 0.000E+00	 2.535E+01	 2.392E+00	-2.116E+02	 5.392E+01	 5.391E+01	 5.353E+00	-4.645E+00	 4.357E+00	 4.177E-01	 1.159E+00	 4.097E+01	 4.772E+00	 1.442E+01	 3.126E+01	 8.631E+00	-1.383E+00	 1.027E+01	-9.006E+00	 1.389E+00	 0.000E+00	 1.765E+02	 1.092E+00	 1.290E+02
    7.9200	 1.200E+01	 0.000E+00	 0.000E+00	 2.728E+01	 2.210E+00	-2.116E+02	 5.399E+01	 5.398E+01	 4.960E+00	-5.369E+00	 4.452E+00	 9.636E-01	-1.219E+00	 4.062E+01	 5.379E+00	 1.375E+01	 3.219E+01	 8.113E+00	-2.470E+00	 6.898E+00	-1.111E+01	 1.431E+00	 0.000E+00	 1.820E+02	 1.229E+00	 1.457E+02
    7.9600	 1.200E+01	 0.000E+00	 0.000E+00	 2.905E+01	 1.975E+00	-2.119E+02	 5.403E+01	 5.403E+01	 4.336E+00	-5.869E+00	 4.287E+00	 1.427E+00	-3.329E+00	 3.833E+01	 5.874E+00	 1.244E+01	 3.224E+01	 8.185E+00	-3.458E+00	 3.355E+00	-1.261E+01	 1.433E+00	 0.000E+00	 1.824E+02	 1.317E+00	 1.564E+02
    8.0000	 1.200E+01	 0.000E+00	 0.000E+00	 3.045E+01	 1.967E+00	-2.123E+02	 5.405E+01	 5.405E+01	 3.665E+00	-6.236E+00	 4.097E+00	 1.853E+00	-5.734E+00	 3.568E+01	 6.550E+00	 1.129E+01	 3.179E+01	 8.928E+00	-4.138E+00	-1.519E-01	-1.370E+01	 1.413E+00	 0.000E+00	 1.799E+02	 1.361E+00	 1.618E+02
    8.0400	 1.200E+01	 0.000E+00	 0.000E+00	 3.190E+01	 1.980E+00	-2.129E+02	 5.405E+01	 5.406E+01	 3.077E+00	-6.367E+00	 3.984E+00	 2.082E+00	-7.114E+00	 3.370E+01	 6.933E+00	 1.076E+01	 3.124E+01	 9.863E+00	-4.109E+00	-3.334E+00	-1.404E+01	 1.389E+00	 0.000E+00	 1.769E+02	 1.377E+00	 1.637E+02
    8.0800	 1.200E+01	 0.000E+00	 0.000E+00	 3.269E+01	 1.819E+00	-2.134E+02	 5.406E+01	 5.406E+01	 2.776E+00	-6.202E+00	 4.031E+00	 1.980E+00	-6.598E+00	 3.328E+01	 6.807E+00	 1.078E+01	 3.101E+01	 1.047E+01	-3.430E+00	-6.032E+00	-1.345E+01	 1.378E+00	 0.000E+00	 1.755E+02	 1.379E+00	 1.639E+02
    8.1200	 1.200E+01	 0.000E+00	 0.000E+00	 3.270E+01	 1.605E+00	-2.141E+02	 5.406E+01	 5.406E+01	 2.767E+00	-5.822E+00	 4.216E+00	 1.599E+00	-4.633E+00	 3.428E+01	 6.389E+00	 1.114E+01	 3.124E+01	 1.063E+01	-2.433E+00	-8.245E+00	-1.213E+01	 1.388E+00	 0.000E+00	 1.769E+02	 1.380E+00	 1.641E+02
    8.1600	 1.200E+01	 0.000E+00	 0.000E+00	 3.254E+01	 1.476E+00	-2.147E+02	 5.406E+01	 5.406E+01	 2.874E+00	-5.278E+00	 4.421E+00	 1.007E+00	-1.744E+00	 3.567E+01	 5.823E+00	 1.164E+01	 3.177E+01	 1.035E+01	-1.404E+00	-9.976E+00	-1.022E+01	 1.412E+00	 0.000E+00	 1.799E+02	 1.389E+00	 1.652E+02
    8.2000	 1.200E+01	 0.000E+00	 0.000E+00	 3.245E+01	 1.371E+00	-2.152E+02	 5.407E+01	 5.407E+01	 2.992E+00	-4.556E+00	 4.599E+00	 2.076E-01	 2.173E+00	 3.673E+01	 5.031E+00	 1.208E+01	 3.246E+01	 9.613E+00	-6.312E-01	-1.116E+01	-7.711E+00	 1.442E+00	 0.000E+00	 1.838E+02	 1.406E+00	 1.672E+02
    8.2400	 1.200E+01	 0.000E+00	 0.000E+00	 3.235E+01	 1.302E+00	-2.157E+02	 5.409E+01	 5.408E+01	 3.086E+00	-3.695E+00	 4.689E+00	-7.467E-01	 6.890E+00	 3.706E+01	 4.065E+00	 1.222E+01	 3.320E+01	 8.590E+00	-2.911E-01	-1.172E+01	-4.755E+00	 1.476E+00	 0.000E+00	 1.880E+02	 1.430E+00	 1.701E+02
    8.2800	 1.200E+01	 0.000E+00	 0.000E+00	 3.216E+01	 1.317E+00	-2.161E+02	 5.410E+01	 5.410E+01	 3.158E+00	-2.763E+00	 4.658E+00	-1.771E+00	 1.188E+01	 3.667E+01	 3.063E+00	 1.203E+01	 3.389E+01	 7.573E+00	-4.162E-01	-1.170E+01	-1.576E+00	 1.506E+00	 0.000E+00	 1.920E+02	 1.457E+00	 1.735E+02
    8.3200	 1.200E+01	 0.000E+00	 0.000E+00	 3.180E+01	 1.374E+00	-2.163E+02	 5.411E+01	 5.411E+01	 3.248E+00	-1.800E+00	 4.563E+00	-2.826E+00	 1.704E+01	 3.604E+01	 2.026E+00	 1.164E+01	 3.454E+01	 6.824E+00	-9.699E-01	-1.115E+01	 1.689E+00	 1.535E+00	 0.000E+00	 1.957E+02	 1.485E+00	 1.769E+02
    8.3600	 1.200E+01	 0.000E+00	 0.000E+00	 3.134E+01	 1.466E+00	-2.165E+02	 5.413E+01	 5.413E+01	 3.392E+00	-8.539E-01	 4.483E+00	-3.869E+00	 2.222E+01	 3.567E+01	 9.630E-01	 1.131E+01	 3.521E+01	 6.534E+00	-1.770E+00	-1.014E+01	 4.881E+00	 1.565E+00	 0.000E+00	 1.996E+02	 1.514E+00	 1.804E+02
    8.4000	 1.200E+01	 0.000E+00	 0.000E+00	 3.082E+01	 1.669E+00	-2.166E+02	 5.414E+01	 5.414E+01	 3.607E+00	-7.852E-03	 4.466E+00	-4.815E+00	 2.689E+01	 3.587E+01	 2.364E-04	 1.125E+01	 3.586E+01	 6.714E+00	-2.509E+00	-8.725E+00	 7.752E+00	 1.594E+00	 0.000E+00	 2.033E+02	 1.544E+00	 1.840E+02
    8.4400	 1.200E+01	 0.000E+00	 0.000E+00	 3.024E+01	 1.982E+00	-2.166E+02	 5.416E+01	 5.416E+01	 3.887E+00	 6.884E-01	 4.508E+00	-5.605E+00	 3.074E+01	 3.664E+01	-7.943E-01	 1.146E+01	 3.644E+01	 7.237E+00	-2.970E+00	-6.963E+00	 1.014E+01	 1.620E+00	 0.000E+00	 2.067E+02	 1.572E+00	 1.874E+02
    8.4800	 1.200E+01	 0.000E+00	 0.000E+00	 2.954E+01	 2.340E+00	-2.166E+02	 5.417E+01	 5.417E+01	 4.198E+00	 1.226E+00	 4.566E+00	-6.219E+00	 3.376E+01	 3.770E+01	-1.430E+00	 1.182E+01	 3.691E+01	 7.952E+00	-3.066E+00	-4.947E+00	 1.197E+01	 1.640E+00	 0.000E+00	 2.094E+02	 1.598E+00	 1.906E+02
    8.5200	 1.200E+01	 0.000E+00	 0.000E+00	 2.885E+01	 2.697E+00	-2.167E+02	 5.418E+01	 5.418E+01	 4.482E+00	 1.590E+00	 4.594E+00	-6.639E+00	 3.585E+01	 3.864E+01	-1.891E+00	 1.216E+01	 3.723E+01	 8.689E+00	-2.737E+00	-2.816E+00	 1.320E+01	 1.655E+00	 0.000E+00	 2.112E+02	 1.621E+00	 1.933E+02
    8.5600	 1.200E+01	 0.000E+00	 0.000E+00	 2.831E+01	 3.043E+00	-2.168E+02	 5.419E+01	 5.419E+01	 4.680E+00	 1.763E+00	 4.551E+00	-6.830E+00	 3.680E+01	 3.906E+01	-2.118E+00	 1.232E+01	 3.732E+01	 9.225E+00	-2.006E+00	-6.824E-01	 1.375E+01	 1.659E+00	 0.000E+00	 2.118E+02	 1.637E+00	 1.953E+02
    8.6000	 1.200E+01	 0.000E+00	 0.000E+00	 2.793E+01	 3.351E+00	-2.169E+02	 5.419E+01	 5.419E+01	 4.763E+00	 1.745E+00	 4.413E+00	-6.793E+00	 3.658E+01	 3.875E+01	-2.088E+00	 1.225E+01	 3.718E+01	 9.395E+00	-1.029E+00	 1.374E+00	 1.364E+01	 1.652E+00	 0.000E+00	 2.110E+02	 1.646E+00	 1.963E+02
    8.6400	 1.200E+01	 0.000E+00	 0.000E+00	 2.768E+01	 3.530E+00	-2.170E+02	 5.419E+01	 5.419E+01	 4.737E+00	 1.581E+00	 4.200E+00	-6.573E+00	 3.549E+01	 3.781E+01	-1.881E+00	 1.199E+01	 3.681E+01	 9.194E+00	 3.283E-02	 3.261E+00	 1.297E+01	 1.636E+00	 0.000E+00	 2.089E+02	 1.645E+00	 1.963E+02
    8.6800	 1.200E+01	 0.000E+00	 0.000E+00	 2.759E+01	 3.546E+00	-2.172E+02	 5.419E+01	 5.419E+01	 4.647E+00	 1.278E+00	 3.974E+00	-6.202E+00	 3.369E+01	 3.660E+01	-1.538E+00	 1.164E+01	 3.636E+01	 8.630E+00	 1.023E+00	 4.911E+00	 1.183E+01	 1.616E+00	 0.000E+00	 2.063E+02	 1.637E+00	 1.952E+02
    8.7200	 1.200E+01	 0.000E+00	 0.000E+00	 2.763E+01	 3.461E+00	-2.172E+02	 5.418E+01	 5.418E+01	 4.538E+00	 8.180E-01	 3.782E+00	-5.675E+00	 3.113E+01	 3.548E+01	-1.008E+00	 1.132E+01	 3.594E+01	 7.724E+00	 1.755E+00	 6.280E+00	 1.020E+01	 1.597E+00	 0.000E+00	 2.039E+02	 1.623E+00	 1.936E+02
    8.7600	 1.200E+01	 0.000E+00	 0.000E+00	 2.772E+01	 3.309E+00	-2.172E+02	 5.417E+01	 5.417E+01	 4.455E+00	 2.042E-01	 3.646E+00	-5.007E+00	 2.787E+01	 3.476E+01	-2.972E-01	 1.114E+01	 3.562E+01	 6.606E+00	 2.070E+00	 7.340E+00	 8.129E+00	 1.583E+00	 0.000E+00	 2.021E+02	 1.608E+00	 1.918E+02
    8.8000	 1.200E+01	 0.000E+00	 0.000E+00	 2.779E+01	 3.103E+00	-2.170E+02	 5.417E+01	 5.417E+01	 4.423E+00	-5.363E-01	 3.595E+00	-4.235E+00	 2.416E+01	 3.462E+01	 5.240E-01	 1.111E+01	 3.546E+01	 5.470E+00	 1.920E+00	 8.042E+00	 5.710E+00	 1.576E+00	 0.000E+00	 2.011E+02	 1.595E+00	 1.902E+02
    8.8400	 1.200E+01	 0.000E+00	 0.000E+00	 2.789E+01	 2.913E+00	-2.168E+02	 5.416E+01	 5.416E+01	 4.429E+00	-1.389E+00	 3.624E+00	-3.377E+00	 2.005E+01	 3.497E+01	 1.451E+00	 1.125E+01	 3.546E+01	 4.508E+00	 1.294E+00	 8.354E+00	 2.998E+00	 1.576E+00	 0.000E+00	 2.011E+02	 1.586E+00	 1.891E+02