
Predictions were generated on 11-Jan-2021 at 20:48:56 using OpenFAST, compiled as a 64-bit application using double precision at commit v2.4.0-137-gb5d9a13c
 linked with  NWTC Subroutine Library; ElastoDyn; InflowWind; AeroDyn; ServoDyn

Description from the FAST input file: FAST Certification Test #02: AWT-27CR2 with many DOFs with startup and shutdown and steady wind

Time	Wind1VelX	Wind1VelY	Wind1VelZ	Spn1ALxb1	Spn1ALyb1	Spn1ALzb1	RotSpeed	LSSGagVxa	RootFxb1	RootFyb1	RootFxb2	RootFyb2	RootMIP2	RootMOoP2	Spn1MLxb1	Spn1MLyb1	RotTorq	LSSTipMys	LSSTipMzs	LSSGagMya	LSSGagMza	HSShftTq	HSSBrTq	HSShftPwr	GenTq	GenPwr
(s)	(m/s)	(m/s)	(m/s)	(m/s^2)	(m/s^2)	(m/s^2)	(rpm)	(rpm)	(kN)	(kN)	(kN)	(kN)	(kN-m)	(kN-m)	(kN-m)	(kN-m)	(kN-m)	(kN-m)	(kN-m)	(kN-m)	(kN-m)	(kN-m)	(kN-m)	(kW)	(kN-m)	(kW)
    5.0000	 1.200E+01	 0.000E+00	 0.000E+00	 2.800E-02	 6.915E-03	-1.179E-02	 1.793E-01	 1.792E-01	 3.276E+00	-3.191E-01	 2.888E+00	 1.312E-01	-1.027E+00	 1.548E+01	-2.092E-01	 3.919E+00	 3.546E-02	 3.459E+00	-3.316E-01	 7.951E+00	-7.436E-01	 1.576E-03	 0.000E+00	 6.656E-04	 0.000E+00	 0.000E+00
    5.0400	 1.200E+01	 0.000E+00	 0.000E+00	 2.992E-02	 7.800E-03	-6.705E-03	 1.797E-01	 1.797E-01	 3.283E+00	-3.227E-01	 2.898E+00	 1.339E-01	-1.039E+00	 1.554E+01	-2.062E-01	 3.937E+00	 3.768E-02	 3.443E+00	-3.389E-01	 7.935E+00	-7.559E-01	 1.675E-03	 0.000E+00	 7.091E-04	 0.000E+00	 0.000E+00
    5.0800	 1.200E+01	 0.000E+00	 0.000E+00	 2.981E-02	 8.363E-03	-4.544E-03	 1.802E-01	 1.802E-01	 3.291E+00	-3.261E-01	 2.908E+00	 1.368E-01	-1.052E+00	 1.559E+01	-2.032E-01	 3.951E+00	 3.753E-02	 3.427E+00	-3.451E-01	 7.919E+00	-7.670E-01	 1.668E-03	 0.000E+00	 7.081E-04	 0.000E+00	 0.000E+00
    5.1200	 1.200E+01	 0.000E+00	 0.000E+00	 2.865E-02	 8.676E-03	-5.461E-03	 1.806E-01	 1.807E-01	 3.299E+00	-3.294E-01	 2.918E+00	 1.397E-01	-1.067E+00	 1.564E+01	-2.000E-01	 3.957E+00	 3.430E-02	 3.411E+00	-3.499E-01	 7.903E+00	-7.767E-01	 1.524E-03	 0.000E+00	 6.488E-04	 0.000E+00	 0.000E+00
    5.1600	 1.200E+01	 0.000E+00	 0.000E+00	 2.602E-02	 8.715E-03	-9.360E-03	 1.810E-01	 1.811E-01	 3.306E+00	-3.327E-01	 2.928E+00	 1.429E-01	-1.083E+00	 1.566E+01	-1.966E-01	 3.957E+00	 2.848E-02	 3.396E+00	-3.533E-01	 7.887E+00	-7.851E-01	 1.266E-03	 0.000E+00	 5.401E-04	 0.000E+00	 0.000E+00
    5.2000	 1.200E+01	 0.000E+00	 0.000E+00	 2.041E-02	 8.388E-03	-1.591E-02	 1.813E-01	 1.814E-01	 3.314E+00	-3.359E-01	 2.938E+00	 1.460E-01	-1.100E+00	 1.569E+01	-1.933E-01	 3.954E+00	 2.154E-02	 3.381E+00	-3.562E-01	 7.872E+00	-7.929E-01	 9.572E-04	 0.000E+00	 4.091E-04	 0.000E+00	 0.000E+00
    5.2400	 1.200E+01	 0.000E+00	 0.000E+00	 1.006E-02	 7.594E-03	-2.457E-02	 1.816E-01	 1.816E-01	 3.325E+00	-3.392E-01	 2.951E+00	 1.491E-01	-1.116E+00	 1.573E+01	-1.903E-01	 3.956E+00	 1.528E-02	 3.367E+00	-3.594E-01	 7.858E+00	-8.011E-01	 6.789E-04	 0.000E+00	 2.905E-04	 0.000E+00	 0.000E+00
    5.2800	 1.200E+01	 0.000E+00	 0.000E+00	-6.154E-03	 6.286E-03	-3.470E-02	 1.818E-01	 1.818E-01	 3.338E+00	-3.428E-01	 2.967E+00	 1.521E-01	-1.132E+00	 1.580E+01	-1.876E-01	 3.967E+00	 1.121E-02	 3.354E+00	-3.638E-01	 7.845E+00	-8.106E-01	 4.982E-04	 0.000E+00	 2.134E-04	 0.000E+00	 0.000E+00
    5.3200	 1.200E+01	 0.000E+00	 0.000E+00	-2.803E-02	 4.527E-03	-4.559E-02	 1.819E-01	 1.819E-01	 3.355E+00	-3.465E-01	 2.986E+00	 1.549E-01	-1.146E+00	 1.589E+01	-1.855E-01	 3.988E+00	 1.001E-02	 3.342E+00	-3.698E-01	 7.834E+00	-8.217E-01	 4.447E-04	 0.000E+00	 1.906E-04	 0.000E+00	 0.000E+00
    5.3600	 1.200E+01	 0.000E+00	 0.000E+00	-5.380E-02	 2.490E-03	-5.654E-02	 1.820E-01	 1.820E-01	 3.374E+00	-3.504E-01	 3.007E+00	 1.576E-01	-1.159E+00	 1.600E+01	-1.838E-01	 4.018E+00	 1.129E-02	 3.331E+00	-3.770E-01	 7.824E+00	-8.342E-01	 5.019E-04	 0.000E+00	 2.153E-04	 0.000E+00	 0.000E+00
    5.4000	 1.200E+01	 0.000E+00	 0.000E+00	-8.047E-02	 4.416E-04	-6.691E-02	 1.822E-01	 1.822E-01	 3.394E+00	-3.544E-01	 3.028E+00	 1.602E-01	-1.171E+00	 1.612E+01	-1.822E-01	 4.052E+00	 1.384E-02	 3.321E+00	-3.850E-01	 7.815E+00	-8.474E-01	 6.150E-04	 0.000E+00	 2.640E-04	 0.000E+00	 0.000E+00
    5.4400	 1.200E+01	 0.000E+00	 0.000E+00	-1.046E-01	-1.329E-03	-7.612E-02	 1.824E-01	 1.824E-01	 3.413E+00	-3.584E-01	 3.049E+00	 1.628E-01	-1.184E+00	 1.623E+01	-1.806E-01	 4.084E+00	 1.602E-02	 3.312E+00	-3.928E-01	 7.807E+00	-8.605E-01	 7.121E-04	 0.000E+00	 3.060E-04	 0.000E+00	 0.000E+00
    5.4800	 1.200E+01	 0.000E+00	 0.000E+00	-1.231E-01	-2.572E-03	-8.368E-02	 1.826E-01	 1.826E-01	 3.429E+00	-3.622E-01	 3.067E+00	 1.656E-01	-1.197E+00	 1.632E+01	-1.786E-01	 4.110E+00	 1.643E-02	 3.303E+00	-3.997E-01	 7.799E+00	-8.727E-01	 7.302E-04	 0.000E+00	 3.142E-04	 0.000E+00	 0.000E+00
    5.5200	 1.200E+01	 0.000E+00	 0.000E+00	-1.342E-01	-3.132E-03	-8.919E-02	 1.828E-01	 1.828E-01	 3.442E+00	-3.659E-01	 3.081E+00	 1.685E-01	-1.212E+00	 1.639E+01	-1.761E-01	 4.125E+00	 1.431E-02	 3.295E+00	-4.051E-01	 7.791E+00	-8.834E-01	 6.361E-04	 0.000E+00	 2.740E-04	 0.000E+00	 0.000E+00
    5.5600	 1.200E+01	 0.000E+00	 0.000E+00	-1.374E-01	-2.974E-03	-9.231E-02	 1.829E-01	 1.830E-01	 3.450E+00	-3.693E-01	 3.091E+00	 1.716E-01	-1.227E+00	 1.642E+01	-1.730E-01	 4.131E+00	 9.807E-03	 3.287E+00	-4.091E-01	 7.782E+00	-8.927E-01	 4.358E-04	 0.000E+00	 1.879E-04	 0.000E+00	 0.000E+00
    5.6000	 1.200E+01	 0.000E+00	 0.000E+00	-1.339E-01	-2.172E-03	-9.282E-02	 1.830E-01	 1.830E-01	 3.456E+00	-3.726E-01	 3.098E+00	 1.747E-01	-1.244E+00	 1.644E+01	-1.695E-01	 4.129E+00	 3.817E-03	 3.278E+00	-4.123E-01	 7.773E+00	-9.011E-01	 1.696E-04	 0.000E+00	 7.316E-05	 0.000E+00	 0.000E+00
    5.6400	 1.200E+01	 0.000E+00	 0.000E+00	-1.255E-01	-8.690E-04	-9.063E-02	 1.830E-01	 1.831E-01	 3.459E+00	-3.758E-01	 3.102E+00	 1.779E-01	-1.260E+00	 1.644E+01	-1.656E-01	 4.124E+00	-2.364E-03	 3.270E+00	-4.153E-01	 7.764E+00	-9.094E-01	-1.051E-04	 0.000E+00	-4.531E-05	 0.000E+00	 0.000E+00
    5.6800	 1.200E+01	 0.000E+00	 0.000E+00	-1.142E-01	 7.753E-04	-8.580E-02	 1.830E-01	 1.830E-01	 3.460E+00	-3.791E-01	 3.106E+00	 1.811E-01	-1.276E+00	 1.645E+01	-1.616E-01	 4.120E+00	-7.540E-03	 3.261E+00	-4.189E-01	 7.754E+00	-9.181E-01	-3.351E-04	 0.000E+00	-1.445E-04	 0.000E+00	 0.000E+00
    5.7200	 1.200E+01	 0.000E+00	 0.000E+00	-1.016E-01	 2.629E-03	-7.860E-02	 1.829E-01	 1.829E-01	 3.462E+00	-3.824E-01	 3.109E+00	 1.842E-01	-1.290E+00	 1.645E+01	-1.577E-01	 4.120E+00	-1.103E-02	 3.252E+00	-4.234E-01	 7.744E+00	-9.278E-01	-4.903E-04	 0.000E+00	-2.112E-04	 0.000E+00	 0.000E+00
    5.7600	 1.200E+01	 0.000E+00	 0.000E+00	-8.847E-02	 4.612E-03	-6.942E-02	 1.827E-01	 1.827E-01	 3.463E+00	-3.857E-01	 3.112E+00	 1.872E-01	-1.304E+00	 1.647E+01	-1.538E-01	 4.125E+00	-1.287E-02	 3.242E+00	-4.290E-01	 7.734E+00	-9.383E-01	-5.722E-04	 0.000E+00	-2.463E-04	 0.000E+00	 0.000E+00
    5.8000	 1.200E+01	 0.000E+00	 0.000E+00	-7.474E-02	 6.694E-03	-5.887E-02	 1.825E-01	 1.825E-01	 3.465E+00	-3.891E-01	 3.115E+00	 1.901E-01	-1.317E+00	 1.649E+01	-1.499E-01	 4.131E+00	-1.375E-02	 3.232E+00	-4.351E-01	 7.722E+00	-9.495E-01	-6.113E-04	 0.000E+00	-2.629E-04	 0.000E+00	 0.000E+00
    5.8400	 1.200E+01	 0.000E+00	 0.000E+00	-5.995E-02	 8.872E-03	-4.761E-02	 1.824E-01	 1.824E-01	 3.466E+00	-3.925E-01	 3.118E+00	 1.931E-01	-1.330E+00	 1.651E+01	-1.460E-01	 4.137E+00	-1.471E-02	 3.221E+00	-4.413E-01	 7.710E+00	-9.605E-01	-6.536E-04	 0.000E+00	-2.808E-04	 0.000E+00	 0.000E+00
    5.8800	 1.200E+01	 0.000E+00	 0.000E+00	-4.378E-02	 1.113E-02	-3.637E-02	 1.822E-01	 1.822E-01	 3.465E+00	-3.957E-01	 3.119E+00	 1.961E-01	-1.344E+00	 1.652E+01	-1.420E-01	 4.139E+00	-1.671E-02	 3.209E+00	-4.469E-01	 7.697E+00	-9.709E-01	-7.427E-04	 0.000E+00	-3.188E-04	 0.000E+00	 0.000E+00
    5.9200	 1.200E+01	 0.000E+00	 0.000E+00	-2.644E-02	 1.341E-02	-2.586E-02	 1.819E-01	 1.819E-01	 3.464E+00	-3.989E-01	 3.120E+00	 1.992E-01	-1.358E+00	 1.652E+01	-1.377E-01	 4.136E+00	-2.033E-02	 3.197E+00	-4.516E-01	 7.683E+00	-9.803E-01	-9.036E-04	 0.000E+00	-3.873E-04	 0.000E+00	 0.000E+00
    5.9600	 1.200E+01	 0.000E+00	 0.000E+00	-8.971E-03	 1.562E-02	-1.670E-02	 1.816E-01	 1.816E-01	 3.462E+00	-4.019E-01	 3.120E+00	 2.023E-01	-1.373E+00	 1.651E+01	-1.334E-01	 4.129E+00	-2.551E-02	 3.183E+00	-4.554E-01	 7.669E+00	-9.888E-01	-1.134E-03	 0.000E+00	-4.853E-04	 0.000E+00	 0.000E+00
    6.0000	 1.200E+01	 0.000E+00	 0.000E+00	 6.953E-03	 1.760E-02	-9.399E-03	 1.812E-01	 1.813E-01	 3.460E+00	-4.050E-01	 3.121E+00	 2.055E-01	-1.389E+00	 1.650E+01	-1.290E-01	 4.120E+00	-3.164E-02	 3.170E+00	-4.587E-01	 7.653E+00	-9.966E-01	-1.406E-03	 0.000E+00	-6.007E-04	-1.104E+01	-3.045E+03
    6.0400	 1.200E+01	 0.000E+00	 0.000E+00	 1.090E-01	-2.726E+01	-9.593E-02	 1.795E+00	 2.460E+00	 4.686E+00	 1.022E+01	 4.350E+00	 1.266E+01	-8.893E+01	 2.473E+01	-2.431E+01	 3.821E+00	-1.636E+02	-4.383E+00	 9.549E+01	 7.706E+00	 9.455E+01	-7.270E+00	 0.000E+00	-4.214E+01	-1.130E+01	-3.046E+03
    6.0800	 1.200E+01	 0.000E+00	 0.000E+00	 6.318E+00	-2.910E+01	-6.071E-01	 3.347E+00	 3.377E+00	 3.517E+00	 1.114E+01	 3.255E+00	 1.348E+01	-9.562E+01	 1.814E+01	-2.559E+01	 3.179E+00	-1.751E+02	-6.046E+00	 1.032E+02	 7.552E+00	 1.025E+02	-7.782E+00	 0.000E+00	-6.193E+01	-1.141E+01	-3.046E+03
    6.1200	 1.200E+01	 0.000E+00	 0.000E+00	 3.405E+00	-2.130E+01	-1.308E+00	 5.121E+00	 4.888E+00	 3.294E+00	 7.622E+00	 3.085E+00	 9.043E+00	-5.870E+01	 1.410E+01	-1.530E+01	 1.489E+00	-1.111E+02	-4.006E+00	 6.604E+01	 7.485E+00	 6.543E+01	-4.938E+00	 0.000E+00	-5.687E+01	-1.160E+01	-3.045E+03
    6.1600	 1.200E+01	 0.000E+00	 0.000E+00	 5.775E-01	-2.113E+01	-2.239E+00	 6.812E+00	 6.852E+00	 3.607E+00	 7.438E+00	 3.336E+00	 9.841E+00	-6.494E+01	 1.446E+01	-1.638E+01	 7.197E-03	-1.186E+02	-6.461E+00	 6.973E+01	 7.221E+00	 6.880E+01	-5.269E+00	 0.000E+00	-8.506E+01	-1.184E+01	-3.043E+03
    6.2000	 1.200E+01	 0.000E+00	 0.000E+00	 5.838E+00	-2.377E+01	-3.459E+00	 8.478E+00	 8.577E+00	 2.799E+00	 8.594E+00	 2.526E+00	 1.204E+01	-8.307E+01	 1.105E+01	-1.923E+01	-6.768E-02	-1.448E+02	-1.163E+01	 8.455E+01	 6.651E+00	 8.401E+01	-6.436E+00	 0.000E+00	-1.301E+02	-1.205E+01	-3.040E+03
    6.2400	 1.200E+01	 0.000E+00	 0.000E+00	 5.421E+00	-2.551E+01	-4.851E+00	 1.020E+01	 1.019E+01	 3.018E+00	 9.079E+00	 2.903E+00	 1.176E+01	-8.009E+01	 1.334E+01	-1.996E+01	 4.512E-01	-1.442E+02	-1.569E+01	 8.483E+01	 6.199E+00	 8.517E+01	-6.411E+00	 0.000E+00	-1.540E+02	-1.226E+01	-3.035E+03
    6.2800	 1.200E+01	 0.000E+00	 0.000E+00	 2.863E+00	-2.525E+01	-6.768E+00	 1.198E+01	 1.195E+01	 3.643E+00	 8.623E+00	 3.700E+00	 1.131E+01	-7.484E+01	 1.832E+01	-1.951E+01	 1.394E+00	-1.369E+02	-1.941E+01	 7.960E+01	 5.447E+00	 8.057E+01	-6.085E+00	 0.000E+00	-1.714E+02	-1.248E+01	-3.029E+03
    6.3200	 1.200E+01	 0.000E+00	 0.000E+00	 4.724E+00	-2.411E+01	-9.039E+00	 1.379E+01	 1.381E+01	 3.505E+00	 7.904E+00	 3.675E+00	 1.234E+01	-8.216E+01	 2.016E+01	-1.797E+01	 2.773E+00	-1.401E+02	-2.475E+01	 7.800E+01	 4.281E+00	 7.990E+01	-6.226E+00	 0.000E+00	-2.026E+02	-1.272E+01	-3.020E+03
    6.3600	 1.200E+01	 0.000E+00	 0.000E+00	 4.906E+00	-2.546E+01	-1.132E+01	 1.562E+01	 1.565E+01	 3.706E+00	 8.184E+00	 4.058E+00	 1.315E+01	-8.819E+01	 2.368E+01	-1.870E+01	 3.740E+00	-1.483E+02	-3.231E+01	 7.980E+01	 3.048E+00	 8.402E+01	-6.591E+00	 0.000E+00	-2.431E+02	-1.295E+01	-3.008E+03
    6.4000	 1.200E+01	 0.000E+00	 0.000E+00	 4.437E+00	-2.808E+01	-1.417E+01	 1.745E+01	 1.747E+01	 3.961E+00	 8.957E+00	 4.588E+00	 1.309E+01	-8.629E+01	 2.704E+01	-2.119E+01	 3.908E+00	-1.529E+02	-4.075E+01	 7.962E+01	 1.386E+00	 8.735E+01	-6.794E+00	 0.000E+00	-2.797E+02	-1.318E+01	-2.993E+03
    6.4400	 1.200E+01	 0.000E+00	 0.000E+00	 6.589E+00	-2.850E+01	-1.787E+01	 1.931E+01	 1.932E+01	 3.501E+00	 8.870E+00	 4.389E+00	 1.350E+01	-8.764E+01	 2.632E+01	-2.142E+01	 3.401E+00	-1.553E+02	-4.865E+01	 7.511E+01	-9.764E-01	 8.693E+01	-6.901E+00	 0.000E+00	-3.141E+02	-1.341E+01	-2.975E+03
    6.4800	 1.200E+01	 0.000E+00	 0.000E+00	 7.805E+00	-2.839E+01	-2.183E+01	 2.115E+01	 2.118E+01	 3.037E+00	 8.518E+00	 4.196E+00	 1.451E+01	-9.473E+01	 2.521E+01	-2.055E+01	 2.262E+00	-1.614E+02	-5.730E+01	 6.971E+01	-3.714E+00	 8.702E+01	-7.172E+00	 0.000E+00	-3.579E+02	-1.362E+01	-2.952E+03
    6.5200	 1.200E+01	 0.000E+00	 0.000E+00	 8.707E+00	-3.039E+01	-2.610E+01	 2.296E+01	 2.300E+01	 2.688E+00	 9.005E+00	 4.246E+00	 1.519E+01	-9.886E+01	 2.498E+01	-2.181E+01	 9.329E-01	-1.705E+02	-6.776E+01	 6.457E+01	-6.785E+00	 8.991E+01	-7.578E+00	 0.000E+00	-4.107E+02	-1.382E+01	-2.924E+03
    6.5600	 1.200E+01	 0.000E+00	 0.000E+00	 1.136E+01	-3.282E+01	-3.126E+01	 2.473E+01	 2.476E+01	 2.108E+00	 9.731E+00	 4.128E+00	 1.543E+01	-9.908E+01	 2.441E+01	-2.393E+01	-6.606E-02	-1.780E+02	-7.763E+01	 5.639E+01	-1.042E+01	 9.175E+01	-7.912E+00	 0.000E+00	-4.617E+02	-1.400E+01	-2.891E+03
    6.6000	 1.200E+01	 0.000E+00	 0.000E+00	 1.299E+01	-3.377E+01	-3.723E+01	 2.645E+01	 2.648E+01	 1.711E+00	 9.783E+00	 4.197E+00	 1.614E+01	-1.034E+02	 2.569E+01	-2.418E+01	-5.580E-01	-1.852E+02	-8.510E+01	 4.427E+01	-1.459E+01	 9.072E+01	-8.232E+00	 0.000E+00	-5.137E+02	-1.414E+01	-2.853E+03
    6.6400	 1.200E+01	 0.000E+00	 0.000E+00	 1.383E+01	-3.464E+01	-4.362E+01	 2.811E+01	 2.815E+01	 1.546E+00	 9.743E+00	 4.619E+00	 1.699E+01	-1.093E+02	 2.904E+01	-2.394E+01	-4.370E-01	-1.932E+02	-9.033E+01	 2.975E+01	-1.903E+01	 8.864E+01	-8.588E+00	 0.000E+00	-5.695E+02	-1.426E+01	-2.809E+03
    6.6800	 1.200E+01	 0.000E+00	 0.000E+00	 1.624E+01	-3.671E+01	-5.060E+01	 2.969E+01	 2.973E+01	 1.244E+00	 1.033E+01	 5.111E+00	 1.728E+01	-1.107E+02	 3.240E+01	-2.556E+01	 1.584E-01	-2.017E+02	-9.368E+01	 1.400E+01	-2.364E+01	 8.704E+01	-8.963E+00	 0.000E+00	-6.278E+02	-1.433E+01	-2.760E+03
    6.7200	 1.200E+01	 0.000E+00	 0.000E+00	 1.939E+01	-3.849E+01	-5.845E+01	 3.119E+01	 3.122E+01	 7.518E-01	 1.092E+01	 5.479E+00	 1.738E+01	-1.107E+02	 3.459E+01	-2.731E+01	 5.880E-01	-2.092E+02	-9.295E+01	-3.051E+00	-2.830E+01	 8.388E+01	-9.297E+00	 0.000E+00	-6.839E+02	-1.436E+01	-2.705E+03
    6.7600	 1.200E+01	 0.000E+00	 0.000E+00	 2.219E+01	-3.903E+01	-6.695E+01	 3.261E+01	 3.264E+01	 1.042E-01	 1.106E+01	 5.566E+00	 1.754E+01	-1.117E+02	 3.472E+01	-2.765E+01	 1.504E-01	-2.142E+02	-8.632E+01	-2.038E+01	-3.279E+01	 7.767E+01	-9.518E+00	 0.000E+00	-7.319E+02	-1.435E+01	-2.646E+03
    6.8000	 1.200E+01	 0.000E+00	 0.000E+00	 2.523E+01	-3.942E+01	-7.583E+01	 3.398E+01	 3.399E+01	-7.438E-01	 1.123E+01	 5.277E+00	 1.744E+01	-1.107E+02	 3.235E+01	-2.799E+01	-1.333E+00	-2.173E+02	-7.517E+01	-3.602E+01	-3.693E+01	 7.013E+01	-9.658E+00	 0.000E+00	-7.735E+02	-1.429E+01	-2.580E+03
    6.8400	 1.200E+01	 0.000E+00	 0.000E+00	 2.849E+01	-3.989E+01	-8.513E+01	 3.528E+01	 3.529E+01	-1.704E+00	 1.155E+01	 4.737E+00	 1.699E+01	-1.072E+02	 2.837E+01	-2.868E+01	-3.435E+00	-2.189E+02	-6.040E+01	-4.873E+01	-4.071E+01	 6.187E+01	-9.727E+00	 0.000E+00	-8.088E+02	-1.418E+01	-2.509E+03
    6.8800	 1.200E+01	 0.000E+00	 0.000E+00	 3.134E+01	-3.946E+01	-9.488E+01	 3.656E+01	 3.655E+01	-2.607E+00	 1.155E+01	 4.247E+00	 1.646E+01	-1.035E+02	 2.431E+01	-2.833E+01	-5.346E+00	-2.169E+02	-4.177E+01	-5.717E+01	-4.409E+01	 5.177E+01	-9.639E+00	 0.000E+00	-8.302E+02	-1.402E+01	-2.430E+03
    6.9200	 1.200E+01	 0.000E+00	 0.000E+00	 3.425E+01	-3.792E+01	-1.048E+02	 3.784E+01	 3.781E+01	-3.413E+00	 1.116E+01	 3.895E+00	 1.579E+01	-9.944E+01	 2.072E+01	-2.694E+01	-6.386E+00	-2.105E+02	-2.100E+01	-5.996E+01	-4.669E+01	 4.033E+01	-9.357E+00	 0.000E+00	-8.336E+02	-1.379E+01	-2.342E+03
    6.9600	 1.200E+01	 0.000E+00	 0.000E+00	 3.682E+01	-3.598E+01	-1.147E+02	 3.914E+01	 3.909E+01	-3.917E+00	 1.072E+01	 3.672E+00	 1.488E+01	-9.366E+01	 1.870E+01	-2.562E+01	-6.447E+00	-2.013E+02	-1.123E+00	-5.700E+01	-4.822E+01	 2.921E+01	-8.947E+00	 0.000E+00	-8.241E+02	-1.348E+01	-2.241E+03
    7.0000	 1.200E+01	 0.000E+00	 0.000E+00	 3.794E+01	-3.438E+01	-1.246E+02	 4.047E+01	 4.041E+01	-3.910E+00	 1.034E+01	 3.676E+00	 1.365E+01	-8.570E+01	 1.911E+01	-2.428E+01	-5.729E+00	-1.891E+02	 1.585E+01	-4.911E+01	-4.870E+01	 1.916E+01	-8.405E+00	 0.000E+00	-8.002E+02	-1.306E+01	-2.123E+03
    7.0400	 1.200E+01	 0.000E+00	 0.000E+00	 3.795E+01	-3.229E+01	-1.349E+02	 4.186E+01	 4.177E+01	-3.547E+00	 9.626E+00	 3.755E+00	 1.225E+01	-7.693E+01	 2.086E+01	-2.160E+01	-4.470E+00	-1.717E+02	 2.896E+01	-3.723E+01	-4.828E+01	 9.925E+00	-7.632E+00	 0.000E+00	-7.512E+02	-1.251E+01	-1.986E+03
    7.0800	 1.200E+01	 0.000E+00	 0.000E+00	 3.802E+01	-2.891E+01	-1.450E+02	 4.329E+01	 4.320E+01	-3.104E+00	 8.759E+00	 3.884E+00	 1.061E+01	-6.724E+01	 2.249E+01	-1.921E+01	-2.796E+00	-1.520E+02	 3.661E+01	-2.364E+01	-4.685E+01	 2.794E+00	-6.755E+00	 0.000E+00	-6.876E+02	-1.178E+01	-1.824E+03
    7.1200	 1.200E+01	 0.000E+00	 0.000E+00	 3.867E+01	-2.599E+01	-1.546E+02	 4.472E+01	 4.463E+01	-2.700E+00	 8.319E+00	 3.943E+00	 8.625E+00	-5.528E+01	 2.295E+01	-1.820E+01	-1.035E+00	-1.334E+02	 3.828E+01	-1.097E+01	-4.407E+01	-1.180E+00	-5.927E+00	 0.000E+00	-6.233E+02	-1.087E+01	-1.639E+03
    7.1600	 1.200E+01	 0.000E+00	 0.000E+00	 3.842E+01	-2.207E+01	-1.636E+02	 4.611E+01	 4.602E+01	-2.064E+00	 7.824E+00	 3.906E+00	 6.505E+00	-4.300E+01	 2.324E+01	-1.751E+01	 4.141E-01	-1.142E+02	 3.530E+01	-5.303E-01	-4.005E+01	-2.872E+00	-5.074E+00	 0.000E+00	-5.501E+02	-9.788E+00	-1.438E+03
    7.2000	 1.200E+01	 0.000E+00	 0.000E+00	 3.765E+01	-1.897E+01	-1.715E+02	 4.739E+01	 4.731E+01	-1.323E+00	 7.738E+00	 4.171E+00	 4.203E+00	-2.986E+01	 2.322E+01	-1.765E+01	 1.981E+00	-9.732E+01	 2.893E+01	 6.064E+00	-3.471E+01	-2.124E+00	-4.326E+00	 0.000E+00	-4.821E+02	-8.586E+00	-1.231E+03
    7.2400	 1.200E+01	 0.000E+00	 0.000E+00	 3.816E+01	-1.654E+01	-1.788E+02	 4.856E+01	 4.847E+01	-7.628E-01	 7.236E+00	 3.985E+00	 2.411E+00	-2.004E+01	 2.152E+01	-1.469E+01	 3.726E+00	-7.811E+01	 2.081E+01	 9.320E+00	-2.814E+01	-8.272E-01	-3.471E+00	 0.000E+00	-3.964E+02	-7.329E+00	-1.028E+03
    7.2800	 1.200E+01	 0.000E+00	 0.000E+00	 3.586E+01	-1.268E+01	-1.850E+02	 4.961E+01	 4.952E+01	 4.060E-01	 6.044E+00	 3.717E+00	 1.183E+00	-1.410E+01	 2.272E+01	-1.018E+01	 5.448E+00	-5.761E+01	 1.245E+01	 9.137E+00	-2.059E+01	 5.499E-01	-2.561E+00	 0.000E+00	-2.988E+02	-6.030E+00	-8.291E+02
    7.3200	 1.200E+01	 0.000E+00	 0.000E+00	 3.070E+01	-1.054E+01	-1.902E+02	 5.051E+01	 5.044E+01	 2.395E+00	 5.829E+00	 4.088E+00	-6.665E-01	-2.452E+00	 2.921E+01	-9.931E+00	 7.601E+00	-4.194E+01	 6.859E+00	 4.595E+00	-1.296E+01	 4.318E+00	-1.864E+00	 0.000E+00	-2.215E+02	-4.772E+00	-6.451E+02
    7.3600	 1.200E+01	 0.000E+00	 0.000E+00	 2.706E+01	-9.762E+00	-1.950E+02	 5.124E+01	 5.118E+01	 4.325E+00	 6.157E+00	 4.552E+00	-2.607E+00	 1.063E+01	 3.696E+01	-1.158E+01	 1.049E+01	-3.029E+01	 4.833E+00	-1.512E+00	-5.811E+00	 8.865E+00	-1.346E+00	 0.000E+00	-1.623E+02	-3.659E+00	-4.885E+02
    7.4000	 1.200E+01	 0.000E+00	 0.000E+00	 2.307E+01	-7.156E+00	-1.993E+02	 5.182E+01	 5.177E+01	 5.881E+00	 5.547E+00	 4.885E+00	-3.249E+00	 1.414E+01	 4.316E+01	-1.025E+01	 1.345E+01	-2.066E+01	 3.879E+00	-6.298E+00	 8.364E-01	 1.044E+01	-9.183E-01	 0.000E+00	-1.120E+02	-2.724E+00	-3.608E+02
    7.4400	 1.200E+01	 0.000E+00	 0.000E+00	 1.998E+01	-3.871E+00	-2.026E+02	 5.226E+01	 5.222E+01	 6.555E+00	 4.596E+00	 4.672E+00	-3.108E+00	 1.248E+01	 4.421E+01	-7.820E+00	 1.535E+01	-1.393E+01	 3.864E+00	-1.031E+01	 7.006E+00	 1.004E+01	-6.190E-01	 0.000E+00	-7.616E+01	-1.971E+00	-2.603E+02
    7.4800	 1.200E+01	 0.000E+00	 0.000E+00	 1.897E+01	-2.048E+00	-2.052E+02	 5.257E+01	 5.255E+01	 6.329E+00	 4.187E+00	 3.723E+00	-3.140E+00	 1.300E+01	 3.900E+01	-7.075E+00	 1.498E+01	-1.039E+01	 6.186E+00	-1.369E+01	 1.260E+01	 1.001E+01	-4.617E-01	 0.000E+00	-5.717E+01	-1.407E+00	-1.864E+02
    7.5200	 1.200E+01	 0.000E+00	 0.000E+00	 1.788E+01	-8.674E-01	-2.076E+02	 5.279E+01	 5.278E+01	 5.616E+00	 3.854E+00	 2.357E+00	-3.152E+00	 1.360E+01	 2.969E+01	-6.568E+00	 1.227E+01	-7.884E+00	 9.819E+00	-1.534E+01	 1.717E+01	 9.785E+00	-3.504E-01	 0.000E+00	-4.357E+01	-1.007E+00	-1.347E+02
    7.5600	 1.200E+01	 0.000E+00	 0.000E+00	 1.703E+01	 6.089E-01	-2.095E+02	 5.295E+01	 5.294E+01	 4.615E+00	 3.143E+00	 8.426E-01	-2.760E+00	 1.126E+01	 1.873E+01	-4.987E+00	 8.437E+00	-5.440E+00	 1.313E+01	-1.517E+01	 2.041E+01	 8.480E+00	-2.418E-01	 0.000E+00	-3.016E+01	-7.193E-01	-9.770E+01
    7.6000	 1.200E+01	 0.000E+00	 0.000E+00	 1.730E+01	 1.479E+00	-2.110E+02	 5.307E+01	 5.306E+01	 3.541E+00	 2.503E+00	-4.697E-01	-2.432E+00	 9.948E+00	 9.137E+00	-3.694E+00	 5.162E+00	-2.638E+00	 1.622E+01	-1.318E+01	 2.240E+01	 7.278E+00	-1.173E-01	 0.000E+00	-1.466E+01	-4.998E-01	-6.970E+01
    7.6400	 1.200E+01	 0.000E+00	 0.000E+00	 1.756E+01	 1.440E+00	-2.120E+02	 5.319E+01	 5.317E+01	 2.992E+00	 1.988E+00	-1.044E+00	-2.421E+00	 1.164E+01	 4.772E+00	-3.168E+00	 3.419E+00	 1.868E+00	 1.852E+01	-9.439E+00	 2.321E+01	 6.566E+00	 8.304E-02	 0.000E+00	 1.040E+01	-3.031E-01	-4.474E+01
    7.6800	 1.200E+01	 0.000E+00	 0.000E+00	 1.731E+01	 1.482E+00	-2.127E+02	 5.332E+01	 5.329E+01	 3.147E+00	 1.143E+00	-7.971E-01	-2.320E+00	 1.275E+01	 6.760E+00	-2.076E+00	 3.572E+00	 8.329E+00	 1.882E+01	-5.335E+00	 2.283E+01	 5.196E+00	 3.702E-01	 0.000E+00	 4.648E+01	-8.310E-02	-1.696E+01
    7.7200	 1.200E+01	 0.000E+00	 0.000E+00	 1.731E+01	 1.830E+00	-2.130E+02	 5.346E+01	 5.342E+01	 3.782E+00	-3.764E-02	 6.941E-02	-1.949E+00	 1.153E+01	 1.379E+01	-3.862E-01	 5.470E+00	 1.488E+01	 1.720E+01	-2.155E+00	 2.140E+01	 2.821E+00	 6.612E-01	 0.000E+00	 8.323E+01	 1.705E-01	 1.487E+01
    7.7600	 1.200E+01	 0.000E+00	 0.000E+00	 1.823E+01	 1.948E+00	-2.128E+02	 5.359E+01	 5.356E+01	 4.572E+00	-1.210E+00	 1.385E+00	-1.500E+00	 9.856E+00	 2.342E+01	 9.927E-01	 8.488E+00	 2.045E+01	 1.452E+01	-1.619E-01	 1.910E+01	 1.003E-01	 9.091E-01	 0.000E+00	 1.147E+02	 4.312E-01	 4.739E+01
    7.8000	 1.200E+01	 0.000E+00	 0.000E+00	 2.043E+01	 1.967E+00	-2.124E+02	 5.372E+01	 5.370E+01	 5.200E+00	-2.368E+00	 2.791E+00	-1.010E+00	 8.072E+00	 3.248E+01	 2.155E+00	 1.162E+01	 2.544E+01	 1.171E+01	 4.517E-01	 1.632E+01	-2.791E+00	 1.131E+00	 0.000E+00	 1.431E+02	 6.824E-01	 7.855E+01
    7.8400	 1.200E+01	 0.000E+00	 0.000E+00	 2.308E+01	 2.224E+00	-2.120E+02	 5.383E+01	 5.382E+01	 5.467E+00	-3.569E+00	 3.846E+00	-3.324E-01	 4.867E+00	 3.858E+01	 3.557E+00	 1.380E+01	 2.920E+01	 9.644E+00	-2.564E-01	 1.335E+01	-5.979E+00	 1.298E+00	 0.000E+00	 1.646E+02	 9.118E-01	 1.068E+02
    7.8800	 1.200E+01	 0.000E+00	 0.000E+00	 2.541E+01	 2.404E+00	-2.117E+02	 5.392E+01	 5.391E+01	 5.360E+00	-4.616E+00	 4.367E+00	 3.798E-01	 1.349E+00	 4.106E+01	 4.733E+00	 1.442E+01	 3.133E+01	 8.533E+00	-1.442E+00	 1.024E+01	-8.896E+00	 1.392E+00	 0.000E+00	 1.769E+02	 1.099E+00	 1.298E+02
    7.9200	 1.200E+01	 0.000E+00	 0.000E+00	 2.733E+01	 2.210E+00	-2.117E+02	 5.399E+01	 5.398E+01	 4.941E+00	-5.338E+00	 4.433E+00	 9.301E-01	-1.041E+00	 4.047E+01	 5.338E+00	 1.367E+01	 3.221E+01	 8.011E+00	-2.524E+00	 6.894E+00	-1.100E+01	 1.431E+00	 0.000E+00	 1.821E+02	 1.234E+00	 1.463E+02
    7.9600	 1.200E+01	 0.000E+00	 0.000E+00	 2.911E+01	 1.989E+00	-2.119E+02	 5.403E+01	 5.403E+01	 4.303E+00	-5.850E+00	 4.255E+00	 1.408E+00	-3.240E+00	 3.804E+01	 5.861E+00	 1.233E+01	 3.224E+01	 8.100E+00	-3.516E+00	 3.384E+00	-1.253E+01	 1.433E+00	 0.000E+00	 1.824E+02	 1.319E+00	 1.567E+02
    8.0000	 1.200E+01	 0.000E+00	 0.000E+00	 3.049E+01	 1.993E+00	-2.124E+02	 5.405E+01	 5.405E+01	 3.637E+00	-6.231E+00	 4.067E+00	 1.847E+00	-5.726E+00	 3.541E+01	 6.564E+00	 1.119E+01	 3.179E+01	 8.866E+00	-4.196E+00	-8.904E-02	-1.366E+01	 1.413E+00	 0.000E+00	 1.799E+02	 1.363E+00	 1.620E+02
    8.0400	 1.200E+01	 0.000E+00	 0.000E+00	 3.190E+01	 1.999E+00	-2.129E+02	 5.405E+01	 5.406E+01	 3.072E+00	-6.372E+00	 3.970E+00	 2.081E+00	-7.112E+00	 3.358E+01	 6.946E+00	 1.071E+01	 3.129E+01	 9.810E+00	-4.158E+00	-3.243E+00	-1.403E+01	 1.390E+00	 0.000E+00	 1.771E+02	 1.378E+00	 1.639E+02
    8.0800	 1.200E+01	 0.000E+00	 0.000E+00	 3.266E+01	 1.831E+00	-2.135E+02	 5.406E+01	 5.406E+01	 2.797E+00	-6.218E+00	 4.037E+00	 1.984E+00	-6.605E+00	 3.335E+01	 6.820E+00	 1.080E+01	 3.109E+01	 1.043E+01	-3.472E+00	-5.925E+00	-1.348E+01	 1.382E+00	 0.000E+00	 1.760E+02	 1.381E+00	 1.642E+02
    8.1200	 1.200E+01	 0.000E+00	 0.000E+00	 3.263E+01	 1.622E+00	-2.141E+02	 5.406E+01	 5.406E+01	 2.808E+00	-5.852E+00	 4.240E+00	 1.615E+00	-4.701E+00	 3.450E+01	 6.420E+00	 1.121E+01	 3.135E+01	 1.061E+01	-2.460E+00	-8.133E+00	-1.219E+01	 1.393E+00	 0.000E+00	 1.775E+02	 1.383E+00	 1.645E+02
    8.1600	 1.200E+01	 0.000E+00	 0.000E+00	 3.247E+01	 1.497E+00	-2.147E+02	 5.407E+01	 5.406E+01	 2.919E+00	-5.321E+00	 4.452E+00	 1.033E+00	-1.859E+00	 3.595E+01	 5.865E+00	 1.174E+01	 3.189E+01	 1.034E+01	-1.414E+00	-9.865E+00	-1.032E+01	 1.417E+00	 0.000E+00	 1.806E+02	 1.393E+00	 1.656E+02
    8.2000	 1.200E+01	 0.000E+00	 0.000E+00	 3.239E+01	 1.392E+00	-2.152E+02	 5.408E+01	 5.407E+01	 3.031E+00	-4.605E+00	 4.624E+00	 2.419E-01	 2.024E+00	 3.696E+01	 5.075E+00	 1.216E+01	 3.256E+01	 9.597E+00	-6.234E-01	-1.105E+01	-7.835E+00	 1.447E+00	 0.000E+00	 1.844E+02	 1.410E+00	 1.678E+02
    8.2400	 1.200E+01	 0.000E+00	 0.000E+00	 3.231E+01	 1.326E+00	-2.157E+02	 5.409E+01	 5.409E+01	 3.111E+00	-3.749E+00	 4.700E+00	-7.023E-01	 6.685E+00	 3.718E+01	 4.117E+00	 1.227E+01	 3.327E+01	 8.565E+00	-2.648E-01	-1.163E+01	-4.902E+00	 1.479E+00	 0.000E+00	 1.884E+02	 1.434E+00	 1.706E+02
    8.2800	 1.200E+01	 0.000E+00	 0.000E+00	 3.213E+01	 1.346E+00	-2.161E+02	 5.410E+01	 5.410E+01	 3.166E+00	-2.821E+00	 4.653E+00	-1.717E+00	 1.163E+01	 3.666E+01	 3.126E+00	 1.203E+01	 3.392E+01	 7.534E+00	-3.757E-01	-1.164E+01	-1.743E+00	 1.508E+00	 0.000E+00	 1.922E+02	 1.460E+00	 1.738E+02
    8.3200	 1.200E+01	 0.000E+00	 0.000E+00	 3.179E+01	 1.401E+00	-2.163E+02	 5.412E+01	 5.411E+01	 3.242E+00	-1.856E+00	 4.547E+00	-2.769E+00	 1.677E+01	 3.593E+01	 2.089E+00	 1.161E+01	 3.454E+01	 6.766E+00	-9.282E-01	-1.111E+01	 1.518E+00	 1.535E+00	 0.000E+00	 1.957E+02	 1.487E+00	 1.771E+02
    8.3600	 1.200E+01	 0.000E+00	 0.000E+00	 3.134E+01	 1.489E+00	-2.165E+02	 5.413E+01	 5.413E+01	 3.380E+00	-9.067E-01	 4.465E+00	-3.813E+00	 2.195E+01	 3.554E+01	 1.022E+00	 1.127E+01	 3.519E+01	 6.456E+00	-1.739E+00	-1.012E+01	 4.715E+00	 1.564E+00	 0.000E+00	 1.994E+02	 1.515E+00	 1.805E+02
    8.4000	 1.200E+01	 0.000E+00	 0.000E+00	 3.082E+01	 1.688E+00	-2.166E+02	 5.414E+01	 5.414E+01	 3.596E+00	-5.546E-02	 4.452E+00	-4.764E+00	 2.664E+01	 3.576E+01	 5.467E-02	 1.122E+01	 3.583E+01	 6.621E+00	-2.496E+00	-8.729E+00	 7.599E+00	 1.593E+00	 0.000E+00	 2.032E+02	 1.544E+00	 1.840E+02
    8.4400	 1.200E+01	 0.000E+00	 0.000E+00	 3.023E+01	 1.992E+00	-2.166E+02	 5.416E+01	 5.416E+01	 3.882E+00	 6.493E-01	 4.502E+00	-5.563E+00	 3.054E+01	 3.659E+01	-7.514E-01	 1.146E+01	 3.642E+01	 7.142E+00	-2.986E+00	-6.986E+00	 1.001E+01	 1.619E+00	 0.000E+00	 2.066E+02	 1.572E+00	 1.874E+02
    8.4800	 1.200E+01	 0.000E+00	 0.000E+00	 2.952E+01	 2.339E+00	-2.166E+02	 5.417E+01	 5.417E+01	 4.201E+00	 1.198E+00	 4.568E+00	-6.189E+00	 3.362E+01	 3.772E+01	-1.402E+00	 1.184E+01	 3.690E+01	 7.870E+00	-3.111E+00	-4.990E+00	 1.188E+01	 1.640E+00	 0.000E+00	 2.093E+02	 1.598E+00	 1.905E+02
    8.5200	 1.200E+01	 0.000E+00	 0.000E+00	 2.884E+01	 2.689E+00	-2.167E+02	 5.418E+01	 5.418E+01	 4.488E+00	 1.573E+00	 4.602E+00	-6.621E+00	 3.577E+01	 3.870E+01	-1.877E+00	 1.219E+01	 3.723E+01	 8.630E+00	-2.801E+00	-2.874E+00	 1.314E+01	 1.655E+00	 0.000E+00	 2.112E+02	 1.620E+00	 1.933E+02
    8.5600	 1.200E+01	 0.000E+00	 0.000E+00	 2.830E+01	 3.032E+00	-2.168E+02	 5.419E+01	 5.419E+01	 4.685E+00	 1.757E+00	 4.559E+00	-6.825E+00	 3.678E+01	 3.912E+01	-2.114E+00	 1.235E+01	 3.733E+01	 9.191E+00	-2.078E+00	-7.517E-01	 1.373E+01	 1.659E+00	 0.000E+00	 2.118E+02	 1.637E+00	 1.953E+02
    8.6000	 1.200E+01	 0.000E+00	 0.000E+00	 2.794E+01	 3.341E+00	-2.169E+02	 5.419E+01	 5.419E+01	 4.764E+00	 1.748E+00	 4.420E+00	-6.797E+00	 3.661E+01	 3.878E+01	-2.094E+00	 1.227E+01	 3.719E+01	 9.388E+00	-1.097E+00	 1.299E+00	 1.365E+01	 1.653E+00	 0.000E+00	 2.110E+02	 1.646E+00	 1.963E+02
    8.6400	 1.200E+01	 0.000E+00	 0.000E+00	 2.769E+01	 3.526E+00	-2.170E+02	 5.419E+01	 5.419E+01	 4.733E+00	 1.594E+00	 4.202E+00	-6.587E+00	 3.555E+01	 3.780E+01	-1.896E+00	 1.199E+01	 3.681E+01	 9.208E+00	-2.547E-02	 3.187E+00	 1.301E+01	 1.636E+00	 0.000E+00	 2.089E+02	 1.645E+00	 1.963E+02
    8.6800	 1.200E+01	 0.000E+00	 0.000E+00	 2.761E+01	 3.548E+00	-2.172E+02	 5.419E+01	 5.419E+01	 4.640E+00	 1.298E+00	 3.972E+00	-6.223E+00	 3.379E+01	 3.656E+01	-1.560E+00	 1.162E+01	 3.636E+01	 8.658E+00	 9.808E-01	 4.840E+00	 1.188E+01	 1.616E+00	 0.000E+00	 2.063E+02	 1.637E+00	 1.952E+02
    8.7200	 1.200E+01	 0.000E+00	 0.000E+00	 2.765E+01	 3.470E+00	-2.172E+02	 5.418E+01	 5.418E+01	 4.530E+00	 8.434E-01	 3.778E+00	-5.702E+00	 3.126E+01	 3.544E+01	-1.035E+00	 1.130E+01	 3.595E+01	 7.757E+00	 1.733E+00	 6.215E+00	 1.028E+01	 1.598E+00	 0.000E+00	 2.040E+02	 1.623E+00	 1.936E+02
    8.7600	 1.200E+01	 0.000E+00	 0.000E+00	 2.773E+01	 3.324E+00	-2.172E+02	 5.417E+01	 5.417E+01	 4.450E+00	 2.337E-01	 3.646E+00	-5.039E+00	 2.803E+01	 3.474E+01	-3.292E-01	 1.112E+01	 3.563E+01	 6.638E+00	 2.068E+00	 7.283E+00	 8.221E+00	 1.584E+00	 0.000E+00	 2.022E+02	 1.608E+00	 1.918E+02
    8.8000	 1.200E+01	 0.000E+00	 0.000E+00	 2.779E+01	 3.124E+00	-2.170E+02	 5.417E+01	 5.417E+01	 4.422E+00	-5.043E-01	 3.598E+00	-4.270E+00	 2.433E+01	 3.463E+01	 4.897E-01	 1.111E+01	 3.547E+01	 5.491E+00	 1.936E+00	 7.996E+00	 5.812E+00	 1.577E+00	 0.000E+00	 2.012E+02	 1.595E+00	 1.902E+02
    8.8400	 1.200E+01	 0.000E+00	 0.000E+00	 2.789E+01	 2.935E+00	-2.168E+02	 5.416E+01	 5.416E+01	 4.432E+00	-1.355E+00	 3.631E+00	-3.414E+00	 2.023E+01	 3.501E+01	 1.414E+00	 1.126E+01	 3.549E+01	 4.514E+00	 1.322E+00	 8.321E+00	 3.107E+00	 1.577E+00	 0.000E+00	 2.013E+02	 1.587E+00	 1.892E+02