
FAST Summary File

Predictions were generated on 06-Nov-2020 at 16:22:00 using OpenFAST, compiled as a 64-bit application using double precision at commit -128-NOTFOUND
  compiled with
    NWTC Subroutine Library
    ElastoDyn
    BeamDyn (unknown version, unknown date) [not called]
    InflowWind
    AeroDyn14 (unknown version, unknown date) [not called]
    AeroDyn
    ServoDyn
    HydroDyn (unknown version, unknown date) [not called]
    SubDyn (unknown version, unknown date) [not called]
    ExtPtfm_MCKF (unknown version, unknown date) [not called]
    MAP (unknown version, unknown date) [not called]
    FEAMooring (unknown version, unknown date) [not called]
    MoorDyn (unknown version, unknown date) [not called]
    OrcaFlexInterface (unknown version, unknown date) [not called]
    IceFloe (unknown version, unknown date) [not called]
    IceDyn (unknown version, unknown date) [not called]


Modeling a land-based turbine
Description from the FAST input file: 
  FAST Certification Test #02: AWT-27CR2 with many DOFs with startup and shutdown and steady wind

Interpolation order for input/output time histories: 2 (quadratic)
Number of correction iterations:  0


   Requested Time Steps  
  -------------------------------------------------
  Component          Time Step (s)    Subcycles (-)
  -----------------  ---------------  -------------
  FAST (glue code)    4.000E-03
  InflowWind          4.000E-03              1
  ElastoDyn           4.000E-03              1
  AeroDyn             4.000E-03              1
  ServoDyn            4.000E-03              1
  FAST output files   4.000E-02             10^-1


   Requested Channels in FAST Output File(s)  
  --------------------------------------------
  Number  Name                  Units                 Generated by
  ------  --------------------  --------------------  ------------
       1  Time                  (s)                   OpenFAST
       2  Wind1VelX             (m/s)                 InflowWind
       3  Wind1VelY             (m/s)                 InflowWind
       4  Wind1VelZ             (m/s)                 InflowWind
       5  Spn1ALxb1             (m/s^2)               ElastoDyn
       6  Spn1ALyb1             (m/s^2)               ElastoDyn
       7  Spn1ALzb1             (m/s^2)               ElastoDyn
       8  RotSpeed              (rpm)                 ElastoDyn
       9  LSSGagVxa             (rpm)                 ElastoDyn
      10  RootFxb1              (kN)                  ElastoDyn
      11  RootFyb1              (kN)                  ElastoDyn
      12  RootFxb2              (kN)                  ElastoDyn
      13  RootFyb2              (kN)                  ElastoDyn
      14  RootMIP2              (kN-m)                ElastoDyn
      15  RootMOoP2             (kN-m)                ElastoDyn
      16  Spn1MLxb1             (kN-m)                ElastoDyn
      17  Spn1MLyb1             (kN-m)                ElastoDyn
      18  RotTorq               (kN-m)                ElastoDyn
      19  LSSTipMys             (kN-m)                ElastoDyn
      20  LSSTipMzs             (kN-m)                ElastoDyn
      21  LSSGagMya             (kN-m)                ElastoDyn
      22  LSSGagMza             (kN-m)                ElastoDyn
      23  HSShftTq              (kN-m)                ElastoDyn
      24  HSSBrTq               (kN-m)                ElastoDyn
      25  HSShftPwr             (kW)                  ElastoDyn
      26  GenTq                 (kN-m)                ServoDyn
      27  GenPwr                (kW)                  ServoDyn
