
FAST Summary File

Predictions were generated on 06-Nov-2020 at 12:35:37 using OpenFAST, compiled as a 64-bit application using double precision at commit v2.4.0-50-g416ff436
  compiled with
    NWTC Subroutine Library
    ElastoDyn
    BeamDyn (unknown version, unknown date) [not called]
    InflowWind
    AeroDyn14 (unknown version, unknown date) [not called]
    AeroDyn
    ServoDyn
    HydroDyn (unknown version, unknown date) [not called]
    SubDyn (unknown version, unknown date) [not called]
    ExtPtfm_MCKF (unknown version, unknown date) [not called]
    MAP (unknown version, unknown date) [not called]
    FEAMooring (unknown version, unknown date) [not called]
    MoorDyn (unknown version, unknown date) [not called]
    OrcaFlexInterface (unknown version, unknown date) [not called]
    IceFloe (unknown version, unknown date) [not called]
    IceDyn (unknown version, unknown date) [not called]


Modeling a land-based turbine
Description from the FAST input file: 
  FAST Certification Test #10: UAE Phase VI (upwind) with no DOFs in a ramped wind.

Interpolation order for input/output time histories: 2 (quadratic)
Number of correction iterations:  0


   Requested Time Steps  
  -------------------------------------------------
  Component          Time Step (s)    Subcycles (-)
  -----------------  ---------------  -------------
  FAST (glue code)    4.000E-03
  InflowWind          4.000E-03              1
  ElastoDyn           4.000E-03              1
  AeroDyn             4.000E-03              1
  ServoDyn            4.000E-03              1
  FAST output files   1.000E-01             25^-1


   Requested Channels in FAST Output File(s)  
  --------------------------------------------
  Number  Name                  Units                 Generated by
  ------  --------------------  --------------------  ------------
       1  Time                  (s)                   OpenFAST
       2  Wind1VelX             (m/s)                 InflowWind
       3  Wind1VelY             (m/s)                 InflowWind
       4  Wind1VelZ             (m/s)                 InflowWind
       5  RootFxc1              (kN)                  ElastoDyn
       6  RootFyc1              (kN)                  ElastoDyn
       7  RootFzc1              (kN)                  ElastoDyn
       8  RootFxc2              (kN)                  ElastoDyn
       9  RootFyc2              (kN)                  ElastoDyn
      10  RootFzc2              (kN)                  ElastoDyn
      11  RootMOoP1             (kN-m)                ElastoDyn
      12  RootMIP1              (kN-m)                ElastoDyn
      13  RootMzc1              (kN-m)                ElastoDyn
      14  RotTorq               (kN-m)                ElastoDyn
      15  RotThrust             (kN)                  ElastoDyn
      16  RotPwr                (kW)                  ElastoDyn
      17  LSSGagMya             (kN-m)                ElastoDyn
      18  LSSGagMza             (kN-m)                ElastoDyn
      19  YawBrMxp              (kN-m)                ElastoDyn
      20  YawBrMyp              (kN-m)                ElastoDyn
      21  RtAeroCp              (-)                   AeroDyn
      22  RtAeroCq              (-)                   AeroDyn
      23  RtAeroCt              (-)                   AeroDyn
      24  GenPwr                (kW)                  ServoDyn
