
Predictions were generated on 05-Nov-2019 at 08:39:54 using OpenFAST, compiled as a 64-bit application using double precision at commit -128-NOTFOUND
 linked with  NWTC Subroutine Library; ElastoDyn; InflowWind; AeroDyn; ServoDyn

Description from the FAST input file: FAST Certification Test #02: AWT-27CR2 with many DOFs with startup and shutdown and steady wind

Time      	Wind1VelX 	Wind1VelY 	Wind1VelZ 	Spn1ALxb1 	Spn1ALyb1 	Spn1ALzb1 	RotSpeed  	LSSGagVxa 	RootFxb1  	RootFyb1  	RootFxb2  	RootFyb2  	RootMIP2  	RootMOoP2 	Spn1MLxb1 	Spn1MLyb1 	RotTorq   	LSSTipMys 	LSSTipMzs 	LSSGagMya 	LSSGagMza 	HSShftTq  	HSSBrTq   	HSShftPwr 	GenTq     	GenPwr    
(s)       	(m/s)     	(m/s)     	(m/s)     	(m/s^2)   	(m/s^2)   	(m/s^2)   	(rpm)     	(rpm)     	(kN)      	(kN)      	(kN)      	(kN)      	(kN-m)    	(kN-m)    	(kN-m)    	(kN-m)    	(kN-m)    	(kN-m)    	(kN-m)    	(kN-m)    	(kN-m)    	(kN-m)    	(kN-m)    	(kW)      	(kN-m)    	(kW)      
    5.0000	 1.200E+01	-0.000E+00	 0.000E+00	 2.557E-02	 7.203E-03	-1.374E-02	 1.801E-01	 1.801E-01	 3.281E+00	-3.194E-01	 2.892E+00	 1.314E-01	-1.025E+00	 1.532E+01	-2.003E-01	 3.857E+00	 3.532E-02	 3.533E+00	-3.299E-01	 8.024E+00	-7.465E-01	 1.570E-03	 0.000E+00	 6.660E-04	 0.000E+00	 0.000E+00
    5.0400	 1.200E+01	-0.000E+00	 0.000E+00	 2.639E-02	 8.021E-03	-8.567E-03	 1.805E-01	 1.805E-01	 3.289E+00	-3.230E-01	 2.903E+00	 1.341E-01	-1.037E+00	 1.540E+01	-1.975E-01	 3.879E+00	 3.815E-02	 3.517E+00	-3.376E-01	 8.008E+00	-7.592E-01	 1.695E-03	 0.000E+00	 7.211E-04	 0.000E+00	 0.000E+00
    5.0800	 1.200E+01	-0.000E+00	 0.000E+00	 2.573E-02	 8.560E-03	-6.350E-03	 1.810E-01	 1.810E-01	 3.298E+00	-3.265E-01	 2.914E+00	 1.369E-01	-1.050E+00	 1.545E+01	-1.946E-01	 3.894E+00	 3.827E-02	 3.500E+00	-3.440E-01	 7.992E+00	-7.706E-01	 1.701E-03	 0.000E+00	 7.254E-04	 0.000E+00	 0.000E+00
    5.1200	 1.200E+01	-0.000E+00	 0.000E+00	 2.473E-02	 8.901E-03	-7.258E-03	 1.815E-01	 1.815E-01	 3.305E+00	-3.298E-01	 2.924E+00	 1.399E-01	-1.065E+00	 1.550E+01	-1.914E-01	 3.900E+00	 3.486E-02	 3.484E+00	-3.487E-01	 7.975E+00	-7.803E-01	 1.549E-03	 0.000E+00	 6.625E-04	 0.000E+00	 0.000E+00
    5.1600	 1.200E+01	-0.000E+00	 0.000E+00	 2.287E-02	 9.014E-03	-1.119E-02	 1.819E-01	 1.819E-01	 3.312E+00	-3.330E-01	 2.933E+00	 1.430E-01	-1.081E+00	 1.552E+01	-1.880E-01	 3.898E+00	 2.847E-02	 3.468E+00	-3.519E-01	 7.959E+00	-7.884E-01	 1.265E-03	 0.000E+00	 5.423E-04	 0.000E+00	 0.000E+00
    5.2000	 1.200E+01	-0.000E+00	 0.000E+00	 1.838E-02	 8.786E-03	-1.781E-02	 1.822E-01	 1.822E-01	 3.320E+00	-3.362E-01	 2.943E+00	 1.462E-01	-1.098E+00	 1.555E+01	-1.846E-01	 3.894E+00	 2.075E-02	 3.453E+00	-3.543E-01	 7.943E+00	-7.959E-01	 9.222E-04	 0.000E+00	 3.959E-04	 0.000E+00	 0.000E+00
    5.2400	 1.200E+01	-0.000E+00	 0.000E+00	 9.113E-03	 8.087E-03	-2.657E-02	 1.824E-01	 1.824E-01	 3.330E+00	-3.396E-01	 2.955E+00	 1.494E-01	-1.115E+00	 1.558E+01	-1.815E-01	 3.895E+00	 1.377E-02	 3.439E+00	-3.571E-01	 7.929E+00	-8.038E-01	 6.120E-04	 0.000E+00	 2.631E-04	 0.000E+00	 0.000E+00
    5.2800	 1.200E+01	-0.000E+00	 0.000E+00	-6.398E-03	 6.852E-03	-3.678E-02	 1.825E-01	 1.826E-01	 3.343E+00	-3.431E-01	 2.971E+00	 1.524E-01	-1.131E+00	 1.564E+01	-1.788E-01	 3.904E+00	 9.268E-03	 3.426E+00	-3.613E-01	 7.915E+00	-8.131E-01	 4.119E-04	 0.000E+00	 1.772E-04	 0.000E+00	 0.000E+00
    5.3200	 1.200E+01	-0.000E+00	 0.000E+00	-2.811E-02	 5.126E-03	-4.773E-02	 1.827E-01	 1.827E-01	 3.360E+00	-3.468E-01	 2.990E+00	 1.552E-01	-1.145E+00	 1.573E+01	-1.767E-01	 3.926E+00	 8.024E-03	 3.413E+00	-3.672E-01	 7.904E+00	-8.242E-01	 3.566E-04	 0.000E+00	 1.535E-04	 0.000E+00	 0.000E+00
    5.3600	 1.200E+01	-0.000E+00	 0.000E+00	-5.423E-02	 3.091E-03	-5.872E-02	 1.828E-01	 1.828E-01	 3.379E+00	-3.508E-01	 3.011E+00	 1.579E-01	-1.158E+00	 1.585E+01	-1.751E-01	 3.958E+00	 9.632E-03	 3.402E+00	-3.748E-01	 7.894E+00	-8.370E-01	 4.281E-04	 0.000E+00	 1.844E-04	 0.000E+00	 0.000E+00
    5.4000	 1.200E+01	-0.000E+00	 0.000E+00	-8.154E-02	 1.024E-03	-6.911E-02	 1.829E-01	 1.829E-01	 3.400E+00	-3.548E-01	 3.034E+00	 1.605E-01	-1.170E+00	 1.597E+01	-1.736E-01	 3.994E+00	 1.270E-02	 3.392E+00	-3.832E-01	 7.885E+00	-8.507E-01	 5.643E-04	 0.000E+00	 2.432E-04	 0.000E+00	 0.000E+00
    5.4400	 1.200E+01	-0.000E+00	 0.000E+00	-1.063E-01	-7.642E-04	-7.832E-02	 1.831E-01	 1.831E-01	 3.420E+00	-3.589E-01	 3.055E+00	 1.631E-01	-1.183E+00	 1.609E+01	-1.721E-01	 4.028E+00	 1.537E-02	 3.382E+00	-3.913E-01	 7.876E+00	-8.643E-01	 6.833E-04	 0.000E+00	 2.948E-04	 0.000E+00	 0.000E+00
    5.4800	 1.200E+01	-0.000E+00	 0.000E+00	-1.251E-01	-2.004E-03	-8.589E-02	 1.833E-01	 1.833E-01	 3.436E+00	-3.627E-01	 3.073E+00	 1.658E-01	-1.196E+00	 1.619E+01	-1.701E-01	 4.055E+00	 1.604E-02	 3.373E+00	-3.984E-01	 7.868E+00	-8.767E-01	 7.128E-04	 0.000E+00	 3.079E-04	 0.000E+00	 0.000E+00
    5.5200	 1.200E+01	-0.000E+00	 0.000E+00	-1.359E-01	-2.533E-03	-9.140E-02	 1.835E-01	 1.835E-01	 3.449E+00	-3.664E-01	 3.087E+00	 1.688E-01	-1.210E+00	 1.625E+01	-1.676E-01	 4.071E+00	 1.383E-02	 3.365E+00	-4.038E-01	 7.860E+00	-8.874E-01	 6.145E-04	 0.000E+00	 2.657E-04	 0.000E+00	 0.000E+00
    5.5600	 1.200E+01	-0.000E+00	 0.000E+00	-1.386E-01	-2.319E-03	-9.453E-02	 1.836E-01	 1.836E-01	 3.457E+00	-3.698E-01	 3.097E+00	 1.718E-01	-1.226E+00	 1.629E+01	-1.645E-01	 4.075E+00	 8.894E-03	 3.356E+00	-4.076E-01	 7.851E+00	-8.966E-01	 3.953E-04	 0.000E+00	 1.710E-04	 0.000E+00	 0.000E+00
    5.6000	 1.200E+01	-0.000E+00	 0.000E+00	-1.342E-01	-1.450E-03	-9.506E-02	 1.837E-01	 1.837E-01	 3.462E+00	-3.731E-01	 3.103E+00	 1.750E-01	-1.243E+00	 1.630E+01	-1.609E-01	 4.072E+00	 2.280E-03	 3.348E+00	-4.104E-01	 7.841E+00	-9.047E-01	 1.013E-04	 0.000E+00	 4.385E-05	 0.000E+00	 0.000E+00
    5.6400	 1.200E+01	-0.000E+00	 0.000E+00	-1.251E-01	-9.005E-05	-9.287E-02	 1.837E-01	 1.837E-01	 3.464E+00	-3.763E-01	 3.107E+00	 1.783E-01	-1.259E+00	 1.630E+01	-1.569E-01	 4.065E+00	-4.521E-03	 3.339E+00	-4.131E-01	 7.831E+00	-9.126E-01	-2.010E-04	 0.000E+00	-8.698E-05	 0.000E+00	 0.000E+00
    5.6800	 1.200E+01	-0.000E+00	 0.000E+00	-1.134E-01	 1.585E-03	-8.802E-02	 1.836E-01	 1.836E-01	 3.466E+00	-3.795E-01	 3.111E+00	 1.815E-01	-1.275E+00	 1.630E+01	-1.529E-01	 4.061E+00	-1.012E-02	 3.330E+00	-4.164E-01	 7.821E+00	-9.211E-01	-4.499E-04	 0.000E+00	-1.946E-04	 0.000E+00	 0.000E+00
    5.7200	 1.200E+01	-0.000E+00	 0.000E+00	-1.009E-01	 3.434E-03	-8.076E-02	 1.834E-01	 1.835E-01	 3.467E+00	-3.828E-01	 3.114E+00	 1.846E-01	-1.290E+00	 1.631E+01	-1.490E-01	 4.061E+00	-1.373E-02	 3.321E+00	-4.209E-01	 7.811E+00	-9.308E-01	-6.102E-04	 0.000E+00	-2.638E-04	 0.000E+00	 0.000E+00
    5.7600	 1.200E+01	-0.000E+00	 0.000E+00	-8.837E-02	 5.378E-03	-7.150E-02	 1.833E-01	 1.833E-01	 3.469E+00	-3.862E-01	 3.118E+00	 1.876E-01	-1.303E+00	 1.633E+01	-1.452E-01	 4.067E+00	-1.538E-02	 3.311E+00	-4.266E-01	 7.800E+00	-9.416E-01	-6.838E-04	 0.000E+00	-2.953E-04	 0.000E+00	 0.000E+00
    5.8000	 1.200E+01	-0.000E+00	 0.000E+00	-7.552E-02	 7.402E-03	-6.082E-02	 1.831E-01	 1.831E-01	 3.471E+00	-3.897E-01	 3.121E+00	 1.905E-01	-1.316E+00	 1.635E+01	-1.414E-01	 4.075E+00	-1.588E-02	 3.300E+00	-4.331E-01	 7.788E+00	-9.531E-01	-7.059E-04	 0.000E+00	-3.045E-04	 0.000E+00	 0.000E+00
    5.8400	 1.200E+01	-0.000E+00	 0.000E+00	-6.166E-02	 9.517E-03	-4.944E-02	 1.829E-01	 1.829E-01	 3.473E+00	-3.930E-01	 3.125E+00	 1.935E-01	-1.329E+00	 1.638E+01	-1.376E-01	 4.083E+00	-1.644E-02	 3.289E+00	-4.396E-01	 7.776E+00	-9.645E-01	-7.306E-04	 0.000E+00	-3.148E-04	 0.000E+00	 0.000E+00
    5.8800	 1.200E+01	-0.000E+00	 0.000E+00	-4.619E-02	 1.173E-02	-3.808E-02	 1.826E-01	 1.826E-01	 3.473E+00	-3.963E-01	 3.127E+00	 1.964E-01	-1.343E+00	 1.639E+01	-1.336E-01	 4.087E+00	-1.820E-02	 3.276E+00	-4.454E-01	 7.763E+00	-9.751E-01	-8.090E-04	 0.000E+00	-3.482E-04	 0.000E+00	 0.000E+00
    5.9200	 1.200E+01	-0.000E+00	 0.000E+00	-2.916E-02	 1.399E-02	-2.748E-02	 1.824E-01	 1.824E-01	 3.472E+00	-3.995E-01	 3.128E+00	 1.995E-01	-1.357E+00	 1.639E+01	-1.294E-01	 4.085E+00	-2.185E-02	 3.264E+00	-4.501E-01	 7.749E+00	-9.846E-01	-9.711E-04	 0.000E+00	-4.173E-04	 0.000E+00	 0.000E+00
    5.9600	 1.200E+01	-0.000E+00	 0.000E+00	-1.157E-02	 1.620E-02	-1.826E-02	 1.821E-01	 1.821E-01	 3.470E+00	-4.026E-01	 3.128E+00	 2.027E-01	-1.372E+00	 1.638E+01	-1.251E-01	 4.077E+00	-2.734E-02	 3.250E+00	-4.537E-01	 7.734E+00	-9.929E-01	-1.215E-03	 0.000E+00	-5.212E-04	 0.000E+00	 0.000E+00
    6.0000	 1.200E+01	-0.000E+00	 0.000E+00	 4.772E-03	 1.821E-02	-1.092E-02	 1.817E-01	 1.817E-01	 3.468E+00	-4.056E-01	 3.128E+00	 2.059E-01	-1.388E+00	 1.637E+01	-1.207E-01	 4.067E+00	-3.395E-02	 3.236E+00	-4.567E-01	 7.718E+00	-1.000E+00	-1.509E-03	 0.000E+00	-6.460E-04	-1.104E+01	-3.045E+03
    6.0400	 1.200E+01	-0.000E+00	 0.000E+00	 1.617E-01	-2.782E+01	-9.658E-02	 1.795E+00	 2.469E+00	 4.697E+00	 1.038E+01	 4.361E+00	 1.286E+01	-8.940E+01	 2.460E+01	-2.411E+01	 3.783E+00	-1.636E+02	-4.506E+00	 9.767E+01	 7.772E+00	 9.672E+01	-7.273E+00	 0.000E+00	-4.230E+01	-1.131E+01	-3.046E+03
    6.0800	 1.200E+01	-0.000E+00	 0.000E+00	 6.300E+00	-2.898E+01	-6.076E-01	 3.369E+00	 3.397E+00	 3.524E+00	 1.110E+01	 3.262E+00	 1.347E+01	-9.574E+01	 1.801E+01	-2.558E+01	 3.127E+00	-1.740E+02	-6.153E+00	 1.048E+02	 7.614E+00	 1.042E+02	-7.734E+00	 0.000E+00	-6.191E+01	-1.142E+01	-3.046E+03
    6.1200	 1.200E+01	-0.000E+00	 0.000E+00	 3.382E+00	-2.119E+01	-1.305E+00	 5.153E+00	 4.920E+00	 3.299E+00	 7.584E+00	 3.094E+00	 9.028E+00	-5.868E+01	 1.396E+01	-1.526E+01	 1.432E+00	-1.102E+02	-4.067E+00	 6.697E+01	 7.544E+00	 6.635E+01	-4.898E+00	 0.000E+00	-5.677E+01	-1.160E+01	-3.045E+03
    6.1600	 1.200E+01	-0.000E+00	 0.000E+00	 5.525E-01	-2.114E+01	-2.233E+00	 6.854E+00	 6.895E+00	 3.611E+00	 7.433E+00	 3.343E+00	 9.860E+00	-6.501E+01	 1.429E+01	-1.633E+01	-6.860E-02	-1.179E+02	-6.593E+00	 7.089E+01	 7.277E+00	 6.997E+01	-5.238E+00	 0.000E+00	-8.510E+01	-1.184E+01	-3.043E+03
    6.2000	 1.200E+01	-0.000E+00	 0.000E+00	 5.834E+00	-2.375E+01	-3.453E+00	 8.532E+00	 8.631E+00	 2.794E+00	 8.583E+00	 2.521E+00	 1.205E+01	-8.323E+01	 1.083E+01	-1.921E+01	-1.698E-01	-1.441E+02	-1.189E+01	 8.604E+01	 6.693E+00	 8.550E+01	-6.402E+00	 0.000E+00	-1.302E+02	-1.206E+01	-3.039E+03
    6.2400	 1.200E+01	-0.000E+00	 0.000E+00	 5.399E+00	-2.548E+01	-4.841E+00	 1.026E+01	 1.026E+01	 3.011E+00	 9.064E+00	 2.896E+00	 1.178E+01	-8.025E+01	 1.309E+01	-1.992E+01	 3.250E-01	-1.434E+02	-1.604E+01	 8.626E+01	 6.223E+00	 8.662E+01	-6.375E+00	 0.000E+00	-1.541E+02	-1.226E+01	-3.035E+03
    6.2800	 1.200E+01	-0.000E+00	 0.000E+00	 2.846E+00	-2.521E+01	-6.751E+00	 1.206E+01	 1.203E+01	 3.632E+00	 8.603E+00	 3.694E+00	 1.133E+01	-7.500E+01	 1.806E+01	-1.945E+01	 1.257E+00	-1.361E+02	-1.985E+01	 8.090E+01	 5.450E+00	 8.192E+01	-6.050E+00	 0.000E+00	-1.715E+02	-1.249E+01	-3.028E+03
    6.3200	 1.200E+01	-0.000E+00	 0.000E+00	 4.718E+00	-2.408E+01	-9.019E+00	 1.389E+01	 1.390E+01	 3.495E+00	 7.889E+00	 3.672E+00	 1.238E+01	-8.240E+01	 1.994E+01	-1.793E+01	 2.638E+00	-1.394E+02	-2.534E+01	 7.936E+01	 4.256E+00	 8.136E+01	-6.196E+00	 0.000E+00	-2.030E+02	-1.273E+01	-3.019E+03
    6.3600	 1.200E+01	-0.000E+00	 0.000E+00	 4.901E+00	-2.546E+01	-1.129E+01	 1.572E+01	 1.575E+01	 3.699E+00	 8.179E+00	 4.062E+00	 1.319E+01	-8.849E+01	 2.353E+01	-1.868E+01	 3.628E+00	-1.477E+02	-3.311E+01	 8.123E+01	 2.988E+00	 8.562E+01	-6.565E+00	 0.000E+00	-2.437E+02	-1.296E+01	-3.007E+03
    6.4000	 1.200E+01	-0.000E+00	 0.000E+00	 4.504E+00	-2.808E+01	-1.415E+01	 1.757E+01	 1.759E+01	 3.951E+00	 8.950E+00	 4.593E+00	 1.315E+01	-8.664E+01	 2.700E+01	-2.116E+01	 3.863E+00	-1.523E+02	-4.174E+01	 8.097E+01	 1.283E+00	 8.899E+01	-6.769E+00	 0.000E+00	-2.805E+02	-1.319E+01	-2.992E+03
    6.4400	 1.200E+01	-0.000E+00	 0.000E+00	 6.568E+00	-2.853E+01	-1.784E+01	 1.943E+01	 1.944E+01	 3.522E+00	 8.870E+00	 4.430E+00	 1.355E+01	-8.801E+01	 2.658E+01	-2.142E+01	 3.438E+00	-1.548E+02	-4.986E+01	 7.637E+01	-1.130E+00	 8.861E+01	-6.879E+00	 0.000E+00	-3.152E+02	-1.342E+01	-2.973E+03
    6.4800	 1.200E+01	-0.000E+00	 0.000E+00	 7.719E+00	-2.847E+01	-2.180E+01	 2.128E+01	 2.132E+01	 3.085E+00	 8.528E+00	 4.271E+00	 1.458E+01	-9.526E+01	 2.576E+01	-2.059E+01	 2.372E+00	-1.611E+02	-5.880E+01	 7.093E+01	-3.931E+00	 8.887E+01	-7.162E+00	 0.000E+00	-3.597E+02	-1.364E+01	-2.950E+03
    6.5200	 1.200E+01	-0.000E+00	 0.000E+00	 8.689E+00	-3.052E+01	-2.608E+01	 2.310E+01	 2.314E+01	 2.730E+00	 9.037E+00	 4.330E+00	 1.528E+01	-9.941E+01	 2.562E+01	-2.190E+01	 1.087E+00	-1.705E+02	-6.955E+01	 6.565E+01	-7.075E+00	 9.191E+01	-7.576E+00	 0.000E+00	-4.131E+02	-1.384E+01	-2.921E+03
    6.5600	 1.200E+01	-0.000E+00	 0.000E+00	 1.137E+01	-3.303E+01	-3.127E+01	 2.487E+01	 2.491E+01	 2.144E+00	 9.801E+00	 4.217E+00	 1.550E+01	-9.946E+01	 2.509E+01	-2.412E+01	 6.630E-02	-1.781E+02	-7.970E+01	 5.726E+01	-1.079E+01	 9.389E+01	-7.915E+00	 0.000E+00	-4.645E+02	-1.401E+01	-2.888E+03
    6.6000	 1.200E+01	-0.000E+00	 0.000E+00	 1.300E+01	-3.403E+01	-3.727E+01	 2.659E+01	 2.663E+01	 1.733E+00	 9.874E+00	 4.286E+00	 1.623E+01	-1.040E+02	 2.631E+01	-2.442E+01	-4.952E-01	-1.857E+02	-8.744E+01	 4.488E+01	-1.506E+01	 9.303E+01	-8.253E+00	 0.000E+00	-5.179E+02	-1.415E+01	-2.849E+03
    6.6400	 1.200E+01	-0.000E+00	 0.000E+00	 1.396E+01	-3.492E+01	-4.370E+01	 2.824E+01	 2.828E+01	 1.529E+00	 9.848E+00	 4.684E+00	 1.711E+01	-1.100E+02	 2.942E+01	-2.419E+01	-4.690E-01	-1.941E+02	-9.282E+01	 2.999E+01	-1.959E+01	 9.101E+01	-8.625E+00	 0.000E+00	-5.748E+02	-1.426E+01	-2.805E+03
    6.6800	 1.200E+01	-0.000E+00	 0.000E+00	 1.647E+01	-3.705E+01	-5.072E+01	 2.982E+01	 2.986E+01	 1.187E+00	 1.046E+01	 5.162E+00	 1.739E+01	-1.114E+02	 3.255E+01	-2.585E+01	 2.561E-02	-2.027E+02	-9.619E+01	 1.381E+01	-2.428E+01	 8.942E+01	-9.008E+00	 0.000E+00	-6.337E+02	-1.433E+01	-2.755E+03
    6.7200	 1.200E+01	-0.000E+00	 0.000E+00	 1.973E+01	-3.884E+01	-5.861E+01	 3.130E+01	 3.134E+01	 6.474E-01	 1.106E+01	 5.497E+00	 1.749E+01	-1.115E+02	 3.445E+01	-2.760E+01	 3.596E-01	-2.104E+02	-9.530E+01	-3.676E+00	-2.900E+01	 8.616E+01	-9.349E+00	 0.000E+00	-6.903E+02	-1.436E+01	-2.701E+03
    6.7600	 1.200E+01	-0.000E+00	 0.000E+00	 2.259E+01	-3.936E+01	-6.715E+01	 3.271E+01	 3.274E+01	-3.023E-02	 1.119E+01	 5.554E+00	 1.765E+01	-1.124E+02	 3.440E+01	-2.790E+01	-1.573E-01	-2.155E+02	-8.834E+01	-2.139E+01	-3.353E+01	 7.976E+01	-9.576E+00	 0.000E+00	-7.386E+02	-1.435E+01	-2.641E+03
    6.8000	 1.200E+01	-0.000E+00	 0.000E+00	 2.561E+01	-3.974E+01	-7.607E+01	 3.406E+01	 3.407E+01	-8.788E-01	 1.137E+01	 5.250E+00	 1.754E+01	-1.113E+02	 3.202E+01	-2.823E+01	-1.678E+00	-2.186E+02	-7.675E+01	-3.732E+01	-3.771E+01	 7.199E+01	-9.718E+00	 0.000E+00	-7.801E+02	-1.428E+01	-2.576E+03
    6.8400	 1.200E+01	-0.000E+00	 0.000E+00	 2.873E+01	-4.024E+01	-8.540E+01	 3.535E+01	 3.535E+01	-1.786E+00	 1.169E+01	 4.752E+00	 1.707E+01	-1.077E+02	 2.833E+01	-2.891E+01	-3.753E+00	-2.201E+02	-6.146E+01	-5.021E+01	-4.154E+01	 6.345E+01	-9.783E+00	 0.000E+00	-8.149E+02	-1.417E+01	-2.505E+03
    6.8800	 1.200E+01	-0.000E+00	 0.000E+00	 3.170E+01	-3.976E+01	-9.517E+01	 3.661E+01	 3.660E+01	-2.713E+00	 1.167E+01	 4.296E+00	 1.649E+01	-1.038E+02	 2.432E+01	-2.854E+01	-5.537E+00	-2.178E+02	-4.225E+01	-5.864E+01	-4.494E+01	 5.301E+01	-9.682E+00	 0.000E+00	-8.349E+02	-1.401E+01	-2.427E+03
    6.9200	 1.200E+01	-0.000E+00	 0.000E+00	 3.477E+01	-3.806E+01	-1.051E+02	 3.787E+01	 3.784E+01	-3.535E+00	 1.125E+01	 3.913E+00	 1.584E+01	-9.977E+01	 2.073E+01	-2.710E+01	-6.498E+00	-2.114E+02	-2.097E+01	-6.123E+01	-4.751E+01	 4.124E+01	-9.398E+00	 0.000E+00	-8.380E+02	-1.378E+01	-2.340E+03
    6.9600	 1.200E+01	-0.000E+00	 0.000E+00	 3.710E+01	-3.616E+01	-1.149E+02	 3.916E+01	 3.911E+01	-4.003E+00	 1.086E+01	 3.823E+00	 1.486E+01	-9.338E+01	 1.896E+01	-2.600E+01	-6.497E+00	-2.021E+02	-8.103E-01	-5.810E+01	-4.905E+01	 3.000E+01	-8.982E+00	 0.000E+00	-8.278E+02	-1.347E+01	-2.239E+03
    7.0000	 1.200E+01	-0.000E+00	 0.000E+00	 3.885E+01	-3.442E+01	-1.249E+02	 4.048E+01	 4.042E+01	-4.127E+00	 1.047E+01	 3.775E+00	 1.356E+01	-8.501E+01	 1.838E+01	-2.469E+01	-5.837E+00	-1.895E+02	 1.628E+01	-4.980E+01	-4.935E+01	 1.978E+01	-8.423E+00	 0.000E+00	-8.022E+02	-1.306E+01	-2.122E+03
    7.0400	 1.200E+01	-0.000E+00	 0.000E+00	 3.897E+01	-3.218E+01	-1.350E+02	 4.186E+01	 4.178E+01	-3.868E+00	 9.682E+00	 3.633E+00	 1.228E+01	-7.733E+01	 1.910E+01	-2.168E+01	-4.910E+00	-1.726E+02	 2.944E+01	-3.742E+01	-4.871E+01	 1.021E+01	-7.670E+00	 0.000E+00	-7.550E+02	-1.251E+01	-1.986E+03
    7.0800	 1.200E+01	-0.000E+00	 0.000E+00	 3.806E+01	-2.882E+01	-1.451E+02	 4.329E+01	 4.319E+01	-3.296E+00	 8.740E+00	 3.658E+00	 1.068E+01	-6.778E+01	 2.089E+01	-1.890E+01	-3.622E+00	-1.522E+02	 3.707E+01	-2.345E+01	-4.715E+01	 2.803E+00	-6.765E+00	 0.000E+00	-6.884E+02	-1.179E+01	-1.824E+03
    7.1200	 1.200E+01	-0.000E+00	 0.000E+00	 3.834E+01	-2.625E+01	-1.547E+02	 4.472E+01	 4.463E+01	-2.780E+00	 8.412E+00	 3.806E+00	 8.537E+00	-5.457E+01	 2.216E+01	-1.822E+01	-1.782E+00	-1.332E+02	 3.875E+01	-1.094E+01	-4.451E+01	-9.371E-01	-5.918E+00	 0.000E+00	-6.223E+02	-1.087E+01	-1.639E+03
    7.1600	 1.200E+01	-0.000E+00	 0.000E+00	 3.879E+01	-2.207E+01	-1.638E+02	 4.611E+01	 4.602E+01	-2.176E+00	 7.895E+00	 3.826E+00	 6.400E+00	-4.222E+01	 2.290E+01	-1.763E+01	 2.118E-01	-1.138E+02	 3.575E+01	-4.337E-01	-4.052E+01	-2.640E+00	-5.057E+00	 0.000E+00	-5.483E+02	-9.788E+00	-1.438E+03
    7.2000	 1.200E+01	-0.000E+00	 0.000E+00	 3.791E+01	-1.881E+01	-1.716E+02	 4.739E+01	 4.731E+01	-1.316E+00	 7.780E+00	 4.284E+00	 4.128E+00	-2.949E+01	 2.394E+01	-1.789E+01	 2.300E+00	-9.731E+01	 2.925E+01	 6.279E+00	-3.509E+01	-1.993E+00	-4.325E+00	 0.000E+00	-4.821E+02	-8.584E+00	-1.231E+03
    7.2400	 1.200E+01	-0.000E+00	 0.000E+00	 3.811E+01	-1.670E+01	-1.789E+02	 4.856E+01	 4.847E+01	-6.370E-01	 7.313E+00	 4.208E+00	 2.313E+00	-1.938E+01	 2.290E+01	-1.485E+01	 4.252E+00	-7.787E+01	 2.098E+01	 9.454E+00	-2.838E+01	-6.464E-01	-3.461E+00	 0.000E+00	-3.952E+02	-7.327E+00	-1.028E+03
    7.2800	 1.200E+01	-0.000E+00	 0.000E+00	 3.589E+01	-1.257E+01	-1.851E+02	 4.962E+01	 4.953E+01	 4.927E-01	 6.009E+00	 3.843E+00	 1.139E+00	-1.388E+01	 2.367E+01	-1.000E+01	 5.860E+00	-5.684E+01	 1.248E+01	 9.265E+00	-2.070E+01	 6.149E-01	-2.526E+00	 0.000E+00	-2.948E+02	-6.021E+00	-8.276E+02
    7.3200	 1.200E+01	-0.000E+00	 0.000E+00	 3.068E+01	-1.045E+01	-1.902E+02	 5.052E+01	 5.045E+01	 2.437E+00	 5.805E+00	 4.103E+00	-6.963E-01	-2.399E+00	 2.959E+01	-9.785E+00	 7.717E+00	-4.150E+01	 6.859E+00	 4.683E+00	-1.298E+01	 4.350E+00	-1.844E+00	 0.000E+00	-2.192E+02	-4.755E+00	-6.427E+02
    7.3600	 1.200E+01	-0.000E+00	 0.000E+00	 2.699E+01	-9.881E+00	-1.950E+02	 5.125E+01	 5.119E+01	 4.347E+00	 6.217E+00	 4.542E+00	-2.693E+00	 1.117E+01	 3.696E+01	-1.170E+01	 1.034E+01	-3.016E+01	 4.955E+00	-1.519E+00	-5.807E+00	 9.026E+00	-1.340E+00	 0.000E+00	-1.617E+02	-3.643E+00	-4.862E+02
    7.4000	 1.200E+01	-0.000E+00	 0.000E+00	 2.317E+01	-7.163E+00	-1.994E+02	 5.182E+01	 5.178E+01	 5.837E+00	 5.566E+00	 4.838E+00	-3.288E+00	 1.437E+01	 4.271E+01	-1.028E+01	 1.322E+01	-2.057E+01	 3.971E+00	-6.286E+00	 8.682E-01	 1.051E+01	-9.140E-01	 0.000E+00	-1.115E+02	-2.711E+00	-3.591E+02
    7.4400	 1.200E+01	-0.000E+00	 0.000E+00	 2.016E+01	-3.749E+00	-2.026E+02	 5.226E+01	 5.223E+01	 6.481E+00	 4.558E+00	 4.600E+00	-3.064E+00	 1.212E+01	 4.357E+01	-7.676E+00	 1.516E+01	-1.395E+01	 3.829E+00	-1.034E+01	 7.128E+00	 9.917E+00	-6.200E-01	 0.000E+00	-7.630E+01	-1.962E+00	-2.592E+02
    7.4800	 1.200E+01	-0.000E+00	 0.000E+00	 1.900E+01	-2.011E+00	-2.052E+02	 5.257E+01	 5.255E+01	 6.268E+00	 4.190E+00	 3.650E+00	-3.114E+00	 1.291E+01	 3.848E+01	-7.039E+00	 1.490E+01	-1.050E+01	 6.259E+00	-1.380E+01	 1.280E+01	 9.943E+00	-4.665E-01	 0.000E+00	-5.777E+01	-1.403E+00	-1.859E+02
    7.5200	 1.200E+01	-0.000E+00	 0.000E+00	 1.775E+01	-9.630E-01	-2.076E+02	 5.279E+01	 5.278E+01	 5.641E+00	 3.879E+00	 2.332E+00	-3.166E+00	 1.393E+01	 2.963E+01	-6.676E+00	 1.225E+01	-7.864E+00	 1.006E+01	-1.543E+01	 1.739E+01	 9.839E+00	-3.495E-01	 0.000E+00	-4.347E+01	-1.006E+00	-1.345E+02
    7.5600	 1.200E+01	-0.000E+00	 0.000E+00	 1.673E+01	 5.553E-01	-2.096E+02	 5.295E+01	 5.294E+01	 4.685E+00	 3.145E+00	 8.550E-01	-2.767E+00	 1.147E+01	 1.902E+01	-5.022E+00	 8.522E+00	-5.297E+00	 1.337E+01	-1.521E+01	 2.062E+01	 8.495E+00	-2.354E-01	 0.000E+00	-2.937E+01	-7.165E-01	-9.733E+01
    7.6000	 1.200E+01	-0.000E+00	 0.000E+00	 1.705E+01	 1.511E+00	-2.110E+02	 5.308E+01	 5.306E+01	 3.619E+00	 2.456E+00	-4.381E-01	-2.387E+00	 9.703E+00	 9.528E+00	-3.620E+00	 5.312E+00	-2.596E+00	 1.638E+01	-1.322E+01	 2.260E+01	 7.158E+00	-1.154E-01	 0.000E+00	-1.442E+01	-4.964E-01	-6.927E+01
    7.6400	 1.200E+01	-0.000E+00	 0.000E+00	 1.748E+01	 1.449E+00	-2.120E+02	 5.319E+01	 5.317E+01	 3.030E+00	 1.953E+00	-1.023E+00	-2.378E+00	 1.148E+01	 4.958E+00	-3.131E+00	 3.572E+00	 1.888E+00	 1.871E+01	-9.437E+00	 2.341E+01	 6.467E+00	 8.393E-02	 0.000E+00	 1.051E+01	-3.010E-01	-4.448E+01
    7.6800	 1.200E+01	-0.000E+00	 0.000E+00	 1.731E+01	 1.453E+00	-2.128E+02	 5.332E+01	 5.329E+01	 3.151E+00	 1.130E+00	-8.102E-01	-2.312E+00	 1.286E+01	 6.656E+00	-2.111E+00	 3.631E+00	 8.435E+00	 1.904E+01	-5.259E+00	 2.305E+01	 5.167E+00	 3.749E-01	 0.000E+00	 4.707E+01	-8.028E-02	-1.661E+01
    7.7200	 1.200E+01	-0.000E+00	 0.000E+00	 1.724E+01	 1.817E+00	-2.130E+02	 5.346E+01	 5.343E+01	 3.781E+00	-6.852E-02	 2.443E-02	-1.922E+00	 1.148E+01	 1.351E+01	-3.703E-01	 5.390E+00	 1.493E+01	 1.740E+01	-2.088E+00	 2.161E+01	 2.746E+00	 6.637E-01	 0.000E+00	 8.354E+01	 1.735E-01	 1.525E+01
    7.7600	 1.200E+01	-0.000E+00	 0.000E+00	 1.808E+01	 1.952E+00	-2.128E+02	 5.359E+01	 5.357E+01	 4.559E+00	-1.244E+00	 1.317E+00	-1.462E+00	 9.705E+00	 2.306E+01	 1.048E+00	 8.338E+00	 2.047E+01	 1.467E+01	-1.016E-01	 1.927E+01	-2.671E-03	 9.097E-01	 0.000E+00	 1.148E+02	 4.335E-01	 4.769E+01
    7.8000	 1.200E+01	-0.000E+00	 0.000E+00	 2.036E+01	 1.953E+00	-2.124E+02	 5.372E+01	 5.370E+01	 5.177E+00	-2.389E+00	 2.734E+00	-9.798E-01	 7.970E+00	 3.218E+01	 2.197E+00	 1.151E+01	 2.543E+01	 1.181E+01	 5.209E-01	 1.641E+01	-2.878E+00	 1.130E+00	 0.000E+00	 1.430E+02	 6.838E-01	 7.872E+01
    7.8400	 1.200E+01	-0.000E+00	 0.000E+00	 2.307E+01	 2.207E+00	-2.120E+02	 5.383E+01	 5.382E+01	 5.466E+00	-3.596E+00	 3.841E+00	-3.082E-01	 4.765E+00	 3.852E+01	 3.607E+00	 1.380E+01	 2.925E+01	 9.723E+00	-2.079E-01	 1.340E+01	-6.074E+00	 1.300E+00	 0.000E+00	 1.649E+02	 9.129E-01	 1.070E+02
    7.8800	 1.200E+01	-0.000E+00	 0.000E+00	 2.544E+01	 2.414E+00	-2.117E+02	 5.393E+01	 5.391E+01	 5.389E+00	-4.657E+00	 4.407E+00	 4.039E-01	 1.223E+00	 4.126E+01	 4.797E+00	 1.453E+01	 3.146E+01	 8.632E+00	-1.410E+00	 1.027E+01	-9.013E+00	 1.398E+00	 0.000E+00	 1.776E+02	 1.102E+00	 1.301E+02
    7.9200	 1.200E+01	-0.000E+00	 0.000E+00	 2.736E+01	 2.221E+00	-2.116E+02	 5.399E+01	 5.399E+01	 4.996E+00	-5.380E+00	 4.494E+00	 9.468E-01	-1.124E+00	 4.086E+01	 5.382E+00	 1.382E+01	 3.238E+01	 8.121E+00	-2.475E+00	 6.919E+00	-1.111E+01	 1.439E+00	 0.000E+00	 1.831E+02	 1.238E+00	 1.468E+02
    7.9600	 1.200E+01	-0.000E+00	 0.000E+00	 2.904E+01	 1.958E+00	-2.119E+02	 5.403E+01	 5.403E+01	 4.385E+00	-5.880E+00	 4.330E+00	 1.397E+00	-3.182E+00	 3.857E+01	 5.858E+00	 1.245E+01	 3.246E+01	 8.180E+00	-3.461E+00	 3.374E+00	-1.260E+01	 1.443E+00	 0.000E+00	 1.837E+02	 1.326E+00	 1.575E+02
    8.0000	 1.200E+01	-0.000E+00	 0.000E+00	 3.050E+01	 1.961E+00	-2.124E+02	 5.405E+01	 5.405E+01	 3.697E+00	-6.252E+00	 4.125E+00	 1.838E+00	-5.642E+00	 3.584E+01	 6.538E+00	 1.128E+01	 3.197E+01	 8.928E+00	-4.144E+00	-1.327E-01	-1.370E+01	 1.421E+00	 0.000E+00	 1.810E+02	 1.371E+00	 1.630E+02
    8.0400	 1.200E+01	-0.000E+00	 0.000E+00	 3.186E+01	 1.984E+00	-2.129E+02	 5.406E+01	 5.406E+01	 3.109E+00	-6.382E+00	 4.008E+00	 2.072E+00	-7.061E+00	 3.387E+01	 6.952E+00	 1.075E+01	 3.142E+01	 9.871E+00	-4.130E+00	-3.329E+00	-1.405E+01	 1.396E+00	 0.000E+00	 1.779E+02	 1.386E+00	 1.648E+02
    8.0800	 1.200E+01	-0.000E+00	 0.000E+00	 3.268E+01	 1.808E+00	-2.135E+02	 5.406E+01	 5.406E+01	 2.806E+00	-6.210E+00	 4.061E+00	 1.964E+00	-6.482E+00	 3.348E+01	 6.806E+00	 1.080E+01	 3.119E+01	 1.047E+01	-3.468E+00	-6.044E+00	-1.345E+01	 1.386E+00	 0.000E+00	 1.766E+02	 1.387E+00	 1.650E+02
    8.1200	 1.200E+01	-0.000E+00	 0.000E+00	 3.275E+01	 1.605E+00	-2.141E+02	 5.406E+01	 5.406E+01	 2.789E+00	-5.833E+00	 4.243E+00	 1.592E+00	-4.567E+00	 3.447E+01	 6.391E+00	 1.118E+01	 3.139E+01	 1.064E+01	-2.463E+00	-8.257E+00	-1.214E+01	 1.395E+00	 0.000E+00	 1.777E+02	 1.388E+00	 1.651E+02
    8.1600	 1.200E+01	-0.000E+00	 0.000E+00	 3.256E+01	 1.488E+00	-2.147E+02	 5.407E+01	 5.407E+01	 2.901E+00	-5.299E+00	 4.449E+00	 1.012E+00	-1.751E+00	 3.589E+01	 5.851E+00	 1.169E+01	 3.192E+01	 1.038E+01	-1.413E+00	-9.981E+00	-1.025E+01	 1.419E+00	 0.000E+00	 1.807E+02	 1.396E+00	 1.661E+02
    8.2000	 1.200E+01	-0.000E+00	 0.000E+00	 3.244E+01	 1.372E+00	-2.153E+02	 5.408E+01	 5.407E+01	 3.022E+00	-4.574E+00	 4.620E+00	 2.091E-01	 2.213E+00	 3.695E+01	 5.052E+00	 1.211E+01	 3.263E+01	 9.628E+00	-6.382E-01	-1.116E+01	-7.735E+00	 1.450E+00	 0.000E+00	 1.847E+02	 1.413E+00	 1.681E+02
    8.2400	 1.200E+01	-0.000E+00	 0.000E+00	 3.237E+01	 1.290E+00	-2.157E+02	 5.409E+01	 5.409E+01	 3.113E+00	-3.706E+00	 4.706E+00	-7.501E-01	 6.972E+00	 3.726E+01	 4.068E+00	 1.226E+01	 3.336E+01	 8.603E+00	-3.073E-01	-1.173E+01	-4.764E+00	 1.483E+00	 0.000E+00	 1.890E+02	 1.437E+00	 1.710E+02
    8.2800	 1.200E+01	-0.000E+00	 0.000E+00	 3.218E+01	 1.318E+00	-2.161E+02	 5.410E+01	 5.410E+01	 3.183E+00	-2.781E+00	 4.681E+00	-1.768E+00	 1.191E+01	 3.687E+01	 3.082E+00	 1.207E+01	 3.404E+01	 7.588E+00	-4.161E-01	-1.172E+01	-1.600E+00	 1.513E+00	 0.000E+00	 1.929E+02	 1.464E+00	 1.743E+02
    8.3200	 1.200E+01	-0.000E+00	 0.000E+00	 3.182E+01	 1.388E+00	-2.164E+02	 5.412E+01	 5.412E+01	 3.274E+00	-1.823E+00	 4.590E+00	-2.820E+00	 1.702E+01	 3.623E+01	 2.058E+00	 1.168E+01	 3.469E+01	 6.829E+00	-9.557E-01	-1.116E+01	 1.655E+00	 1.542E+00	 0.000E+00	 1.966E+02	 1.492E+00	 1.778E+02
    8.3600	 1.200E+01	-0.000E+00	 0.000E+00	 3.136E+01	 1.471E+00	-2.165E+02	 5.413E+01	 5.413E+01	 3.418E+00	-8.714E-01	 4.509E+00	-3.869E+00	 2.224E+01	 3.585E+01	 9.773E-01	 1.134E+01	 3.535E+01	 6.528E+00	-1.768E+00	-1.015E+01	 4.861E+00	 1.571E+00	 0.000E+00	 2.004E+02	 1.521E+00	 1.812E+02
    8.4000	 1.200E+01	-0.000E+00	 0.000E+00	 3.083E+01	 1.662E+00	-2.166E+02	 5.415E+01	 5.414E+01	 3.632E+00	-1.983E-02	 4.490E+00	-4.821E+00	 2.695E+01	 3.603E+01	 2.181E-04	 1.127E+01	 3.599E+01	 6.709E+00	-2.518E+00	-8.729E+00	 7.747E+00	 1.600E+00	 0.000E+00	 2.041E+02	 1.550E+00	 1.847E+02
    8.4400	 1.200E+01	-0.000E+00	 0.000E+00	 3.022E+01	 1.975E+00	-2.166E+02	 5.416E+01	 5.416E+01	 3.917E+00	 6.740E-01	 4.534E+00	-5.612E+00	 3.079E+01	 3.681E+01	-7.892E-01	 1.147E+01	 3.659E+01	 7.234E+00	-2.979E+00	-6.970E+00	 1.013E+01	 1.626E+00	 0.000E+00	 2.075E+02	 1.578E+00	 1.882E+02
    8.4800	 1.200E+01	-0.000E+00	 0.000E+00	 2.955E+01	 2.329E+00	-2.166E+02	 5.418E+01	 5.417E+01	 4.239E+00	 1.206E+00	 4.601E+00	-6.229E+00	 3.383E+01	 3.792E+01	-1.434E+00	 1.183E+01	 3.710E+01	 7.955E+00	-3.072E+00	-4.963E+00	 1.197E+01	 1.649E+00	 0.000E+00	 2.104E+02	 1.605E+00	 1.914E+02
    8.5200	 1.200E+01	-0.000E+00	 0.000E+00	 2.887E+01	 2.685E+00	-2.167E+02	 5.419E+01	 5.418E+01	 4.534E+00	 1.567E+00	 4.636E+00	-6.650E+00	 3.592E+01	 3.893E+01	-1.899E+00	 1.217E+01	 3.744E+01	 8.693E+00	-2.744E+00	-2.832E+00	 1.320E+01	 1.664E+00	 0.000E+00	 2.124E+02	 1.629E+00	 1.942E+02
    8.5600	 1.200E+01	-0.000E+00	 0.000E+00	 2.829E+01	 3.039E+00	-2.168E+02	 5.419E+01	 5.419E+01	 4.738E+00	 1.740E+00	 4.598E+00	-6.847E+00	 3.688E+01	 3.940E+01	-2.113E+00	 1.236E+01	 3.755E+01	 9.228E+00	-2.012E+00	-6.984E-01	 1.375E+01	 1.669E+00	 0.000E+00	 2.131E+02	 1.646E+00	 1.963E+02
    8.6000	 1.200E+01	-0.000E+00	 0.000E+00	 2.791E+01	 3.342E+00	-2.169E+02	 5.420E+01	 5.420E+01	 4.816E+00	 1.735E+00	 4.471E+00	-6.821E+00	 3.672E+01	 3.911E+01	-2.094E+00	 1.234E+01	 3.740E+01	 9.416E+00	-1.023E+00	 1.349E+00	 1.366E+01	 1.662E+00	 0.000E+00	 2.123E+02	 1.655E+00	 1.975E+02
    8.6400	 1.200E+01	-0.000E+00	 0.000E+00	 2.775E+01	 3.529E+00	-2.171E+02	 5.420E+01	 5.420E+01	 4.781E+00	 1.572E+00	 4.267E+00	-6.600E+00	 3.562E+01	 3.816E+01	-1.888E+00	 1.211E+01	 3.704E+01	 9.214E+00	 3.252E-02	 3.246E+00	 1.300E+01	 1.646E+00	 0.000E+00	 2.102E+02	 1.655E+00	 1.974E+02
    8.6800	 1.200E+01	-0.000E+00	 0.000E+00	 2.770E+01	 3.575E+00	-2.172E+02	 5.419E+01	 5.419E+01	 4.684E+00	 1.258E+00	 4.030E+00	-6.213E+00	 3.373E+01	 3.688E+01	-1.513E+00	 1.176E+01	 3.657E+01	 8.640E+00	 9.886E-01	 4.927E+00	 1.182E+01	 1.625E+00	 0.000E+00	 2.075E+02	 1.646E+00	 1.964E+02
    8.7200	 1.200E+01	-0.000E+00	 0.000E+00	 2.768E+01	 3.486E+00	-2.173E+02	 5.418E+01	 5.419E+01	 4.580E+00	 7.991E-01	 3.817E+00	-5.683E+00	 3.116E+01	 3.572E+01	-9.782E-01	 1.139E+01	 3.613E+01	 7.753E+00	 1.704E+00	 6.323E+00	 1.019E+01	 1.606E+00	 0.000E+00	 2.050E+02	 1.632E+00	 1.947E+02
    8.7600	 1.200E+01	-0.000E+00	 0.000E+00	 2.771E+01	 3.304E+00	-2.172E+02	 5.418E+01	 5.418E+01	 4.502E+00	 1.978E-01	 3.675E+00	-5.027E+00	 2.800E+01	 3.499E+01	-2.989E-01	 1.117E+01	 3.581E+01	 6.655E+00	 2.050E+00	 7.381E+00	 8.151E+00	 1.592E+00	 0.000E+00	 2.032E+02	 1.617E+00	 1.928E+02
    8.8000	 1.200E+01	-0.000E+00	 0.000E+00	 2.780E+01	 3.100E+00	-2.170E+02	 5.417E+01	 5.417E+01	 4.464E+00	-5.418E-01	 3.626E+00	-4.256E+00	 2.429E+01	 3.483E+01	 5.246E-01	 1.115E+01	 3.565E+01	 5.510E+00	 1.915E+00	 8.074E+00	 5.733E+00	 1.584E+00	 0.000E+00	 2.022E+02	 1.604E+00	 1.912E+02
    8.8400	 1.200E+01	-0.000E+00	 0.000E+00	 2.795E+01	 2.935E+00	-2.168E+02	 5.417E+01	 5.417E+01	 4.463E+00	-1.403E+00	 3.660E+00	-3.387E+00	 2.009E+01	 3.517E+01	 1.478E+00	 1.132E+01	 3.564E+01	 4.545E+00	 1.275E+00	 8.389E+00	 2.993E+00	 1.584E+00	 0.000E+00	 2.022E+02	 1.594E+00	 1.901E+02