
Predictions were generated on 25-May-2023 at 14:54:15 using HydroDyn Driver, compiled on May 25 2023 at 14:27:46 as a 64-bit application using double precision at commit 1.0-666-ga6efeb31-dirty
 linked with  NWTC Subroutine Library

Description from the driver input file: Sample file demonstrating NBodyMod=3 inputs, based on NREL 5.0 MW offshore baseline floating platform HydroDyn input properties for the OC4 Semi-submersible.

Time	Wave1Elev	HydroFxi	HydroFzi	HydroMyi	B1WvsFxi	B2WvsFxi	B3WvsFxi	B4WvsFxi	B1WvsFyi	B2WvsFyi	B3WvsFyi	B4WvsFyi	B1WvsFzi	B2WvsFzi	B3WvsFzi	B4WvsFzi	B1WvsMxi	B2WvsMxi	B3WvsMxi	B4WvsMxi	B1WvsMyi	B2WvsMyi	B3WvsMyi	B4WvsMyi	B1WvsMzi	B2WvsMzi	B3WvsMzi	B4WvsMzi	B1Surge	B1Sway	B1Heave	B1Roll	B1Pitch	B1Yaw	B2Surge	B2Sway	B2Heave	B2Roll	B2Pitch	B2Yaw	B3Surge	B3Sway	B3Heave	B3Roll	B3Pitch	B3Yaw	B4Surge	B4Sway	B4Heave	B4Roll	B4Pitch	B4Yaw
(s)	(m)	(N)	(N)	(N-m)	(N)	(N)	(N)	(N)	(N)	(N)	(N)	(N)	(N)	(N)	(N)	(N)	(N-m)	(N-m)	(N-m)	(N-m)	(N-m)	(N-m)	(N-m)	(N-m)	(N-m)	(N-m)	(N-m)	(N-m)	(m)	(m)	(m)	(rad)	(rad)	(rad)	(m)	(m)	(m)	(rad)	(rad)	(rad)	(m)	(m)	(m)	(rad)	(rad)	(rad)	(m)	(m)	(m)	(rad)	(rad)	(rad)
    0.0000	  -9.369898E-01	   2.153490E+06	   4.594564E+07	  -6.090130E+07	   2.417236E+05	   2.796886E+05	   1.363756E+06	   2.796883E+05	  -5.321110E-02	   1.639929E-01	  -1.420972E-01	   1.262027E-01	  -1.071535E+05	   5.917501E+05	  -7.102717E+05	   5.917501E+05	  -2.372863E-01	   2.912003E+00	  -1.121719E+00	   3.742458E+00	  -2.236008E+06	  -2.832898E+06	  -1.620522E+07	  -2.832886E+06	   7.360727E-02	   1.459388E+00	  -2.964977E-01	   1.465422E+00	   0.000000E+00	   0.000000E+00	   0.000000E+00	   0.000000E+00	   0.000000E+00	   0.000000E+00	   0.000000E+00	   0.000000E+00	   0.000000E+00	   0.000000E+00	   0.000000E+00	   0.000000E+00	   0.000000E+00	   0.000000E+00	   0.000000E+00	   0.000000E+00	   0.000000E+00	   0.000000E+00	   0.000000E+00	   0.000000E+00	   0.000000E+00	   0.000000E+00	   0.000000E+00	   0.000000E+00
    0.0125	  -9.300709E-01	   2.171541E+06	   4.594276E+07	  -6.118160E+07	   2.459150E+05	   2.919743E+05	   1.352621E+06	   2.919741E+05	  -5.304557E-02	   1.646690E-01	  -1.410752E-01	   1.274382E-01	  -1.062321E+05	   5.908991E+05	  -7.127498E+05	   5.908991E+05	  -2.340603E-01	   2.944916E+00	  -1.112069E+00	   3.770243E+00	  -2.260996E+06	  -3.003197E+06	  -1.604079E+07	  -3.003186E+06	   7.295999E-02	   1.454741E+00	  -3.028529E-01	   1.460699E+00	   0.000000E+00	   0.000000E+00	   0.000000E+00	   0.000000E+00	   0.000000E+00	   0.000000E+00	   0.000000E+00	   0.000000E+00	   0.000000E+00	   0.000000E+00	   0.000000E+00	   0.000000E+00	   0.000000E+00	   0.000000E+00	   0.000000E+00	   0.000000E+00	   0.000000E+00	   0.000000E+00	   0.000000E+00	   0.000000E+00	   0.000000E+00	   0.000000E+00	   0.000000E+00	   0.000000E+00
    0.0250	  -9.231520E-01	   2.189592E+06	   4.593990E+07	  -6.146202E+07	   2.501064E+05	   3.042601E+05	   1.341487E+06	   3.042598E+05	  -5.288003E-02	   1.653450E-01	  -1.400531E-01	   1.286737E-01	  -1.053106E+05	   5.900481E+05	  -7.152280E+05	   5.900481E+05	  -2.308343E-01	   2.977829E+00	  -1.102419E+00	   3.798028E+00	  -2.285984E+06	  -3.173496E+06	  -1.587635E+07	  -3.173485E+06	   7.231271E-02	   1.450094E+00	  -3.092081E-01	   1.455977E+00	   0.000000E+00	   0.000000E+00	   0.000000E+00	   0.000000E+00	   0.000000E+00	   0.000000E+00	   0.000000E+00	   0.000000E+00	   0.000000E+00	   0.000000E+00	   0.000000E+00	   0.000000E+00	   0.000000E+00	   0.000000E+00	   0.000000E+00	   0.000000E+00	   0.000000E+00	   0.000000E+00	   0.000000E+00	   0.000000E+00	   0.000000E+00	   0.000000E+00	   0.000000E+00	   0.000000E+00
    0.0375	  -9.162331E-01	   2.207644E+06	   4.593706E+07	  -6.174252E+07	   2.542977E+05	   3.165458E+05	   1.330352E+06	   3.165455E+05	  -5.271450E-02	   1.660211E-01	  -1.390311E-01	   1.299092E-01	  -1.043892E+05	   5.891971E+05	  -7.177061E+05	   5.891971E+05	  -2.276082E-01	   3.010743E+00	  -1.092769E+00	   3.825814E+00	  -2.310972E+06	  -3.343796E+06	  -1.571191E+07	  -3.343785E+06	   7.166542E-02	   1.445447E+00	  -3.155633E-01	   1.451254E+00	   0.000000E+00	   0.000000E+00	   0.000000E+00	   0.000000E+00	   0.000000E+00	   0.000000E+00	   0.000000E+00	   0.000000E+00	   0.000000E+00	   0.000000E+00	   0.000000E+00	   0.000000E+00	   0.000000E+00	   0.000000E+00	   0.000000E+00	   0.000000E+00	   0.000000E+00	   0.000000E+00	   0.000000E+00	   0.000000E+00	   0.000000E+00	   0.000000E+00	   0.000000E+00	   0.000000E+00
    0.0500	  -9.093142E-01	   2.225694E+06	   4.593425E+07	  -6.202313E+07	   2.584891E+05	   3.288315E+05	   1.319218E+06	   3.288312E+05	  -5.254896E-02	   1.666971E-01	  -1.380090E-01	   1.311447E-01	  -1.034678E+05	   5.883461E+05	  -7.201843E+05	   5.883461E+05	  -2.243822E-01	   3.043656E+00	  -1.083119E+00	   3.853599E+00	  -2.335960E+06	  -3.514096E+06	  -1.554748E+07	  -3.514084E+06	   7.101814E-02	   1.440800E+00	  -3.219185E-01	   1.446532E+00	   0.000000E+00	   0.000000E+00	   0.000000E+00	   0.000000E+00	   0.000000E+00	   0.000000E+00	   0.000000E+00	   0.000000E+00	   0.000000E+00	   0.000000E+00	   0.000000E+00	   0.000000E+00	   0.000000E+00	   0.000000E+00	   0.000000E+00	   0.000000E+00	   0.000000E+00	   0.000000E+00	   0.000000E+00	   0.000000E+00	   0.000000E+00	   0.000000E+00	   0.000000E+00	   0.000000E+00
    0.0625	  -9.023954E-01	   2.243746E+06	   4.593146E+07	  -6.230383E+07	   2.626804E+05	   3.411173E+05	   1.308083E+06	   3.411170E+05	  -5.238342E-02	   1.673732E-01	  -1.369869E-01	   1.323802E-01	  -1.025464E+05	   5.874951E+05	  -7.226624E+05	   5.874951E+05	  -2.211562E-01	   3.076569E+00	  -1.073468E+00	   3.881385E+00	  -2.360948E+06	  -3.684395E+06	  -1.538304E+07	  -3.684384E+06	   7.037086E-02	   1.436153E+00	  -3.282737E-01	   1.441809E+00	   0.000000E+00	   0.000000E+00	   0.000000E+00	   0.000000E+00	   0.000000E+00	   0.000000E+00	   0.000000E+00	   0.000000E+00	   0.000000E+00	   0.000000E+00	   0.000000E+00	   0.000000E+00	   0.000000E+00	   0.000000E+00	   0.000000E+00	   0.000000E+00	   0.000000E+00	   0.000000E+00	   0.000000E+00	   0.000000E+00	   0.000000E+00	   0.000000E+00	   0.000000E+00	   0.000000E+00
    0.0750	  -8.954765E-01	   2.261797E+06	   4.592868E+07	  -6.258463E+07	   2.668718E+05	   3.534030E+05	   1.296949E+06	   3.534027E+05	  -5.221789E-02	   1.680492E-01	  -1.359649E-01	   1.336158E-01	  -1.016250E+05	   5.866441E+05	  -7.251406E+05	   5.866441E+05	  -2.179302E-01	   3.109483E+00	  -1.063818E+00	   3.909170E+00	  -2.385936E+06	  -3.854695E+06	  -1.521860E+07	  -3.854684E+06	   6.972358E-02	   1.431506E+00	  -3.346289E-01	   1.437087E+00	   0.000000E+00	   0.000000E+00	   0.000000E+00	   0.000000E+00	   0.000000E+00	   0.000000E+00	   0.000000E+00	   0.000000E+00	   0.000000E+00	   0.000000E+00	   0.000000E+00	   0.000000E+00	   0.000000E+00	   0.000000E+00	   0.000000E+00	   0.000000E+00	   0.000000E+00	   0.000000E+00	   0.000000E+00	   0.000000E+00	   0.000000E+00	   0.000000E+00	   0.000000E+00	   0.000000E+00
    0.0875	  -8.885576E-01	   2.279848E+06	   4.592593E+07	  -6.286553E+07	   2.710632E+05	   3.656887E+05	   1.285814E+06	   3.656884E+05	  -5.205235E-02	   1.687253E-01	  -1.349428E-01	   1.348513E-01	  -1.007036E+05	   5.857931E+05	  -7.276188E+05	   5.857931E+05	  -2.147042E-01	   3.142396E+00	  -1.054168E+00	   3.936955E+00	  -2.410924E+06	  -4.024994E+06	  -1.505417E+07	  -4.024984E+06	   6.907629E-02	   1.426859E+00	  -3.409841E-01	   1.432364E+00	   0.000000E+00	   0.000000E+00	   0.000000E+00	   0.000000E+00	   0.000000E+00	   0.000000E+00	   0.000000E+00	   0.000000E+00	   0.000000E+00	   0.000000E+00	   0.000000E+00	   0.000000E+00	   0.000000E+00	   0.000000E+00	   0.000000E+00	   0.000000E+00	   0.000000E+00	   0.000000E+00	   0.000000E+00	   0.000000E+00	   0.000000E+00	   0.000000E+00	   0.000000E+00	   0.000000E+00
    0.1000	  -8.816386E-01	   2.297899E+06	   4.592320E+07	  -6.314652E+07	   2.752546E+05	   3.779744E+05	   1.274680E+06	   3.779741E+05	  -5.188681E-02	   1.694013E-01	  -1.339207E-01	   1.360868E-01	  -9.978219E+04	   5.849421E+05	  -7.300969E+05	   5.849421E+05	  -2.114781E-01	   3.175310E+00	  -1.044518E+00	   3.964741E+00	  -2.435912E+06	  -4.195294E+06	  -1.488973E+07	  -4.195283E+06	   6.842901E-02	   1.422212E+00	  -3.473393E-01	   1.427642E+00	   0.000000E+00	   0.000000E+00	   0.000000E+00	   0.000000E+00	   0.000000E+00	   0.000000E+00	   0.000000E+00	   0.000000E+00	   0.000000E+00	   0.000000E+00	   0.000000E+00	   0.000000E+00	   0.000000E+00	   0.000000E+00	   0.000000E+00	   0.000000E+00	   0.000000E+00	   0.000000E+00	   0.000000E+00	   0.000000E+00	   0.000000E+00	   0.000000E+00	   0.000000E+00	   0.000000E+00
    0.1125	  -8.747198E-01	   2.315951E+06	   4.592050E+07	  -6.342762E+07	   2.794459E+05	   3.902602E+05	   1.263545E+06	   3.902598E+05	  -5.172128E-02	   1.700773E-01	  -1.328987E-01	   1.373223E-01	  -9.886078E+04	   5.840911E+05	  -7.325751E+05	   5.840911E+05	  -2.082521E-01	   3.208223E+00	  -1.034868E+00	   3.992526E+00	  -2.460900E+06	  -4.365594E+06	  -1.472530E+07	  -4.365582E+06	   6.778172E-02	   1.417565E+00	  -3.536945E-01	   1.422919E+00	   0.000000E+00	   0.000000E+00	   0.000000E+00	   0.000000E+00	   0.000000E+00	   0.000000E+00	   0.000000E+00	   0.000000E+00	   0.000000E+00	   0.000000E+00	   0.000000E+00	   0.000000E+00	   0.000000E+00	   0.000000E+00	   0.000000E+00	   0.000000E+00	   0.000000E+00	   0.000000E+00	   0.000000E+00	   0.000000E+00	   0.000000E+00	   0.000000E+00	   0.000000E+00	   0.000000E+00
    0.1250	  -8.678009E-01	   2.334002E+06	   4.591782E+07	  -6.370881E+07	   2.836373E+05	   4.025459E+05	   1.252411E+06	   4.025456E+05	  -5.155574E-02	   1.707534E-01	  -1.318766E-01	   1.385578E-01	  -9.793937E+04	   5.832401E+05	  -7.350532E+05	   5.832401E+05	  -2.050261E-01	   3.241136E+00	  -1.025218E+00	   4.020311E+00	  -2.485888E+06	  -4.535893E+06	  -1.456086E+07	  -4.535882E+06	   6.713444E-02	   1.412918E+00	  -3.600497E-01	   1.418196E+00	   0.000000E+00	   0.000000E+00	   0.000000E+00	   0.000000E+00	   0.000000E+00	   0.000000E+00	   0.000000E+00	   0.000000E+00	   0.000000E+00	   0.000000E+00	   0.000000E+00	   0.000000E+00	   0.000000E+00	   0.000000E+00	   0.000000E+00	   0.000000E+00	   0.000000E+00	   0.000000E+00	   0.000000E+00	   0.000000E+00	   0.000000E+00	   0.000000E+00	   0.000000E+00	   0.000000E+00
    0.1375	  -8.608820E-01	   2.352053E+06	   4.591515E+07	  -6.399010E+07	   2.878287E+05	   4.148316E+05	   1.241276E+06	   4.148313E+05	  -5.139020E-02	   1.714294E-01	  -1.308545E-01	   1.397933E-01	  -9.701796E+04	   5.823891E+05	  -7.375314E+05	   5.823891E+05	  -2.018001E-01	   3.274050E+00	  -1.015568E+00	   4.048097E+00	  -2.510877E+06	  -4.706192E+06	  -1.439642E+07	  -4.706182E+06	   6.648716E-02	   1.408271E+00	  -3.664049E-01	   1.413474E+00	   0.000000E+00	   0.000000E+00	   0.000000E+00	   0.000000E+00	   0.000000E+00	   0.000000E+00	   0.000000E+00	   0.000000E+00	   0.000000E+00	   0.000000E+00	   0.000000E+00	   0.000000E+00	   0.000000E+00	   0.000000E+00	   0.000000E+00	   0.000000E+00	   0.000000E+00	   0.000000E+00	   0.000000E+00	   0.000000E+00	   0.000000E+00	   0.000000E+00	   0.000000E+00	   0.000000E+00
    0.1500	  -8.539631E-01	   2.370105E+06	   4.591251E+07	  -6.427149E+07	   2.920200E+05	   4.271174E+05	   1.230142E+06	   4.271170E+05	  -5.122467E-02	   1.721055E-01	  -1.298325E-01	   1.410288E-01	  -9.609655E+04	   5.815381E+05	  -7.400095E+05	   5.815381E+05	  -1.985741E-01	   3.306963E+00	  -1.005918E+00	   4.075882E+00	  -2.535865E+06	  -4.876492E+06	  -1.423199E+07	  -4.876482E+06	   6.583987E-02	   1.403624E+00	  -3.727601E-01	   1.408751E+00	   0.000000E+00	   0.000000E+00	   0.000000E+00	   0.000000E+00	   0.000000E+00	   0.000000E+00	   0.000000E+00	   0.000000E+00	   0.000000E+00	   0.000000E+00	   0.000000E+00	   0.000000E+00	   0.000000E+00	   0.000000E+00	   0.000000E+00	   0.000000E+00	   0.000000E+00	   0.000000E+00	   0.000000E+00	   0.000000E+00	   0.000000E+00	   0.000000E+00	   0.000000E+00	   0.000000E+00
    0.1625	  -8.470442E-01	   2.388156E+06	   4.590989E+07	  -6.455298E+07	   2.962114E+05	   4.394031E+05	   1.219008E+06	   4.394028E+05	  -5.105913E-02	   1.727815E-01	  -1.288104E-01	   1.422643E-01	  -9.517514E+04	   5.806872E+05	  -7.424877E+05	   5.806871E+05	  -1.953480E-01	   3.339876E+00	  -9.962675E-01	   4.103667E+00	  -2.560853E+06	  -5.046792E+06	  -1.406755E+07	  -5.046781E+06	   6.519260E-02	   1.398977E+00	  -3.791153E-01	   1.404029E+00	   0.000000E+00	   0.000000E+00	   0.000000E+00	   0.000000E+00	   0.000000E+00	   0.000000E+00	   0.000000E+00	   0.000000E+00	   0.000000E+00	   0.000000E+00	   0.000000E+00	   0.000000E+00	   0.000000E+00	   0.000000E+00	   0.000000E+00	   0.000000E+00	   0.000000E+00	   0.000000E+00	   0.000000E+00	   0.000000E+00	   0.000000E+00	   0.000000E+00	   0.000000E+00	   0.000000E+00
    0.1750	  -8.401253E-01	   2.406208E+06	   4.590730E+07	  -6.483457E+07	   3.004028E+05	   4.516888E+05	   1.207873E+06	   4.516885E+05	  -5.089360E-02	   1.734576E-01	  -1.277883E-01	   1.434998E-01	  -9.425373E+04	   5.798362E+05	  -7.449658E+05	   5.798361E+05	  -1.921220E-01	   3.372790E+00	  -9.866174E-01	   4.131453E+00	  -2.585841E+06	  -5.217091E+06	  -1.390311E+07	  -5.217081E+06	   6.454531E-02	   1.394331E+00	  -3.854705E-01	   1.399306E+00	   0.000000E+00	   0.000000E+00	   0.000000E+00	   0.000000E+00	   0.000000E+00	   0.000000E+00	   0.000000E+00	   0.000000E+00	   0.000000E+00	   0.000000E+00	   0.000000E+00	   0.000000E+00	   0.000000E+00	   0.000000E+00	   0.000000E+00	   0.000000E+00	   0.000000E+00	   0.000000E+00	   0.000000E+00	   0.000000E+00	   0.000000E+00	   0.000000E+00	   0.000000E+00	   0.000000E+00
    0.1875	  -8.332065E-01	   2.424260E+06	   4.590472E+07	  -6.511626E+07	   3.045941E+05	   4.639746E+05	   1.196739E+06	   4.639742E+05	  -5.072806E-02	   1.741336E-01	  -1.267663E-01	   1.447353E-01	  -9.333232E+04	   5.789852E+05	  -7.474440E+05	   5.789851E+05	  -1.888960E-01	   3.405703E+00	  -9.769673E-01	   4.159238E+00	  -2.610829E+06	  -5.387390E+06	  -1.373868E+07	  -5.387380E+06	   6.389803E-02	   1.389683E+00	  -3.918257E-01	   1.394584E+00	   0.000000E+00	   0.000000E+00	   0.000000E+00	   0.000000E+00	   0.000000E+00	   0.000000E+00	   0.000000E+00	   0.000000E+00	   0.000000E+00	   0.000000E+00	   0.000000E+00	   0.000000E+00	   0.000000E+00	   0.000000E+00	   0.000000E+00	   0.000000E+00	   0.000000E+00	   0.000000E+00	   0.000000E+00	   0.000000E+00	   0.000000E+00	   0.000000E+00	   0.000000E+00	   0.000000E+00
    0.2000	  -8.262876E-01	   2.442311E+06	   4.590217E+07	  -6.539804E+07	   3.087855E+05	   4.762603E+05	   1.185604E+06	   4.762599E+05	  -5.056252E-02	   1.748096E-01	  -1.257442E-01	   1.459708E-01	  -9.241091E+04	   5.781342E+05	  -7.499221E+05	   5.781341E+05	  -1.856700E-01	   3.438617E+00	  -9.673172E-01	   4.187023E+00	  -2.635817E+06	  -5.557690E+06	  -1.357424E+07	  -5.557680E+06	   6.325074E-02	   1.385037E+00	  -3.981809E-01	   1.389861E+00	   0.000000E+00	   0.000000E+00	   0.000000E+00	   0.000000E+00	   0.000000E+00	   0.000000E+00	   0.000000E+00	   0.000000E+00	   0.000000E+00	   0.000000E+00	   0.000000E+00	   0.000000E+00	   0.000000E+00	   0.000000E+00	   0.000000E+00	   0.000000E+00	   0.000000E+00	   0.000000E+00	   0.000000E+00	   0.000000E+00	   0.000000E+00	   0.000000E+00	   0.000000E+00	   0.000000E+00
    0.2125	  -8.175020E-01	   2.456982E+06	   4.589929E+07	  -6.559398E+07	   3.127427E+05	   4.879673E+05	   1.172471E+06	   4.879670E+05	  -5.026330E-02	   1.754844E-01	  -1.245409E-01	   1.472238E-01	  -9.142377E+04	   5.765177E+05	  -7.511912E+05	   5.765176E+05	  -1.822823E-01	   3.470652E+00	  -9.551047E-01	   4.214195E+00	  -2.658184E+06	  -5.724510E+06	  -1.338978E+07	  -5.724500E+06	   6.260987E-02	   1.379237E+00	  -4.036546E-01	   1.383984E+00	   0.000000E+00	   0.000000E+00	   0.000000E+00	   0.000000E+00	   0.000000E+00	   0.000000E+00	   0.000000E+00	   0.000000E+00	   0.000000E+00	   0.000000E+00	   0.000000E+00	   0.000000E+00	   0.000000E+00	   0.000000E+00	   0.000000E+00	   0.000000E+00	   0.000000E+00	   0.000000E+00	   0.000000E+00	   0.000000E+00	   0.000000E+00	   0.000000E+00	   0.000000E+00	   0.000000E+00
    0.2250	  -8.087164E-01	   2.471653E+06	   4.589643E+07	  -6.578997E+07	   3.166999E+05	   4.996744E+05	   1.159337E+06	   4.996740E+05	  -4.996408E-02	   1.761591E-01	  -1.233375E-01	   1.484767E-01	  -9.043661E+04	   5.749011E+05	  -7.524602E+05	   5.749010E+05	  -1.788947E-01	   3.502687E+00	  -9.428923E-01	   4.241367E+00	  -2.680550E+06	  -5.891329E+06	  -1.320533E+07	  -5.891319E+06	   6.196899E-02	   1.373438E+00	  -4.091283E-01	   1.378107E+00	   0.000000E+00	   0.000000E+00	   0.000000E+00	   0.000000E+00	   0.000000E+00	   0.000000E+00	   0.000000E+00	   0.000000E+00	   0.000000E+00	   0.000000E+00	   0.000000E+00	   0.000000E+00	   0.000000E+00	   0.000000E+00	   0.000000E+00	   0.000000E+00	   0.000000E+00	   0.000000E+00	   0.000000E+00	   0.000000E+00	   0.000000E+00	   0.000000E+00	   0.000000E+00	   0.000000E+00
    0.2375	  -7.999309E-01	   2.486323E+06	   4.589359E+07	  -6.598601E+07	   3.206571E+05	   5.113814E+05	   1.146204E+06	   5.113811E+05	  -4.966486E-02	   1.768338E-01	  -1.221342E-01	   1.497296E-01	  -8.944946E+04	   5.732846E+05	  -7.537293E+05	   5.732845E+05	  -1.755071E-01	   3.534723E+00	  -9.306799E-01	   4.268539E+00	  -2.702917E+06	  -6.058149E+06	  -1.302087E+07	  -6.058138E+06	   6.132811E-02	   1.367639E+00	  -4.146020E-01	   1.372230E+00	   0.000000E+00	   0.000000E+00	   0.000000E+00	   0.000000E+00	   0.000000E+00	   0.000000E+00	   0.000000E+00	   0.000000E+00	   0.000000E+00	   0.000000E+00	   0.000000E+00	   0.000000E+00	   0.000000E+00	   0.000000E+00	   0.000000E+00	   0.000000E+00	   0.000000E+00	   0.000000E+00	   0.000000E+00	   0.000000E+00	   0.000000E+00	   0.000000E+00	   0.000000E+00	   0.000000E+00
    0.2500	  -7.911453E-01	   2.500992E+06	   4.589078E+07	  -6.618210E+07	   3.246142E+05	   5.230885E+05	   1.133070E+06	   5.230881E+05	  -4.936563E-02	   1.775085E-01	  -1.209309E-01	   1.509826E-01	  -8.846231E+04	   5.716681E+05	  -7.549984E+05	   5.716680E+05	  -1.721195E-01	   3.566758E+00	  -9.184674E-01	   4.295711E+00	  -2.725283E+06	  -6.224968E+06	  -1.283642E+07	  -6.224958E+06	   6.068723E-02	   1.361840E+00	  -4.200757E-01	   1.366353E+00	   0.000000E+00	   0.000000E+00	   0.000000E+00	   0.000000E+00	   0.000000E+00	   0.000000E+00	   0.000000E+00	   0.000000E+00	   0.000000E+00	   0.000000E+00	   0.000000E+00	   0.000000E+00	   0.000000E+00	   0.000000E+00	   0.000000E+00	   0.000000E+00	   0.000000E+00	   0.000000E+00	   0.000000E+00	   0.000000E+00	   0.000000E+00	   0.000000E+00	   0.000000E+00	   0.000000E+00
    0.2625	  -7.823597E-01	   2.515661E+06	   4.588798E+07	  -6.637822E+07	   3.285715E+05	   5.347956E+05	   1.119937E+06	   5.347952E+05	  -4.906641E-02	   1.781832E-01	  -1.197275E-01	   1.522355E-01	  -8.747516E+04	   5.700516E+05	  -7.562675E+05	   5.700514E+05	  -1.687318E-01	   3.598793E+00	  -9.062550E-01	   4.322883E+00	  -2.747650E+06	  -6.391788E+06	  -1.265196E+07	  -6.391778E+06	   6.004635E-02	   1.356041E+00	  -4.255494E-01	   1.360476E+00	   0.000000E+00	   0.000000E+00	   0.000000E+00	   0.000000E+00	   0.000000E+00	   0.000000E+00	   0.000000E+00	   0.000000E+00	   0.000000E+00	   0.000000E+00	   0.000000E+00	   0.000000E+00	   0.000000E+00	   0.000000E+00	   0.000000E+00	   0.000000E+00	   0.000000E+00	   0.000000E+00	   0.000000E+00	   0.000000E+00	   0.000000E+00	   0.000000E+00	   0.000000E+00	   0.000000E+00
    0.2750	  -7.735741E-01	   2.530329E+06	   4.588520E+07	  -6.657440E+07	   3.325287E+05	   5.465026E+05	   1.106804E+06	   5.465022E+05	  -4.876719E-02	   1.788580E-01	  -1.185242E-01	   1.534884E-01	  -8.648801E+04	   5.684350E+05	  -7.575366E+05	   5.684349E+05	  -1.653442E-01	   3.630828E+00	  -8.940426E-01	   4.350055E+00	  -2.770016E+06	  -6.558608E+06	  -1.246751E+07	  -6.558597E+06	   5.940548E-02	   1.350242E+00	  -4.310231E-01	   1.354599E+00	   0.000000E+00	   0.000000E+00	   0.000000E+00	   0.000000E+00	   0.000000E+00	   0.000000E+00	   0.000000E+00	   0.000000E+00	   0.000000E+00	   0.000000E+00	   0.000000E+00	   0.000000E+00	   0.000000E+00	   0.000000E+00	   0.000000E+00	   0.000000E+00	   0.000000E+00	   0.000000E+00	   0.000000E+00	   0.000000E+00	   0.000000E+00	   0.000000E+00	   0.000000E+00	   0.000000E+00
    0.2875	  -7.647886E-01	   2.544997E+06	   4.588245E+07	  -6.677062E+07	   3.364858E+05	   5.582097E+05	   1.093670E+06	   5.582093E+05	  -4.846796E-02	   1.795327E-01	  -1.173208E-01	   1.547413E-01	  -8.550085E+04	   5.668185E+05	  -7.588056E+05	   5.668184E+05	  -1.619566E-01	   3.662864E+00	  -8.818301E-01	   4.377227E+00	  -2.792383E+06	  -6.725427E+06	  -1.228305E+07	  -6.725416E+06	   5.876460E-02	   1.344442E+00	  -4.364967E-01	   1.348722E+00	   0.000000E+00	   0.000000E+00	   0.000000E+00	   0.000000E+00	   0.000000E+00	   0.000000E+00	   0.000000E+00	   0.000000E+00	   0.000000E+00	   0.000000E+00	   0.000000E+00	   0.000000E+00	   0.000000E+00	   0.000000E+00	   0.000000E+00	   0.000000E+00	   0.000000E+00	   0.000000E+00	   0.000000E+00	   0.000000E+00	   0.000000E+00	   0.000000E+00	   0.000000E+00	   0.000000E+00
    0.3000	  -7.560030E-01	   2.559664E+06	   4.587972E+07	  -6.696690E+07	   3.404431E+05	   5.699168E+05	   1.080537E+06	   5.699164E+05	  -4.816874E-02	   1.802074E-01	  -1.161175E-01	   1.559943E-01	  -8.451370E+04	   5.652020E+05	  -7.600747E+05	   5.652019E+05	  -1.585689E-01	   3.694899E+00	  -8.696177E-01	   4.404399E+00	  -2.814750E+06	  -6.892247E+06	  -1.209860E+07	  -6.892236E+06	   5.812372E-02	   1.338643E+00	  -4.419704E-01	   1.342845E+00	   0.000000E+00	   0.000000E+00	   0.000000E+00	   0.000000E+00	   0.000000E+00	   0.000000E+00	   0.000000E+00	   0.000000E+00	   0.000000E+00	   0.000000E+00	   0.000000E+00	   0.000000E+00	   0.000000E+00	   0.000000E+00	   0.000000E+00	   0.000000E+00	   0.000000E+00	   0.000000E+00	   0.000000E+00	   0.000000E+00	   0.000000E+00	   0.000000E+00	   0.000000E+00	   0.000000E+00
    0.3125	  -7.472174E-01	   2.574331E+06	   4.587701E+07	  -6.716321E+07	   3.444002E+05	   5.816238E+05	   1.067403E+06	   5.816234E+05	  -4.786951E-02	   1.808821E-01	  -1.149142E-01	   1.572472E-01	  -8.352655E+04	   5.635854E+05	  -7.613438E+05	   5.635854E+05	  -1.551813E-01	   3.726934E+00	  -8.574052E-01	   4.431571E+00	  -2.837116E+06	  -7.059066E+06	  -1.191414E+07	  -7.059055E+06	   5.748284E-02	   1.332844E+00	  -4.474441E-01	   1.336968E+00	   0.000000E+00	   0.000000E+00	   0.000000E+00	   0.000000E+00	   0.000000E+00	   0.000000E+00	   0.000000E+00	   0.000000E+00	   0.000000E+00	   0.000000E+00	   0.000000E+00	   0.000000E+00	   0.000000E+00	   0.000000E+00	   0.000000E+00	   0.000000E+00	   0.000000E+00	   0.000000E+00	   0.000000E+00	   0.000000E+00	   0.000000E+00	   0.000000E+00	   0.000000E+00	   0.000000E+00
    0.3250	  -7.384319E-01	   2.588997E+06	   4.587432E+07	  -6.735957E+07	   3.483574E+05	   5.933309E+05	   1.054270E+06	   5.933305E+05	  -4.757029E-02	   1.815569E-01	  -1.137108E-01	   1.585001E-01	  -8.253940E+04	   5.619689E+05	  -7.626128E+05	   5.619688E+05	  -1.517937E-01	   3.758970E+00	  -8.451928E-01	   4.458743E+00	  -2.859482E+06	  -7.225886E+06	  -1.172969E+07	  -7.225874E+06	   5.684197E-02	   1.327045E+00	  -4.529178E-01	   1.331091E+00	   0.000000E+00	   0.000000E+00	   0.000000E+00	   0.000000E+00	   0.000000E+00	   0.000000E+00	   0.000000E+00	   0.000000E+00	   0.000000E+00	   0.000000E+00	   0.000000E+00	   0.000000E+00	   0.000000E+00	   0.000000E+00	   0.000000E+00	   0.000000E+00	   0.000000E+00	   0.000000E+00	   0.000000E+00	   0.000000E+00	   0.000000E+00	   0.000000E+00	   0.000000E+00	   0.000000E+00
    0.3375	  -7.296463E-01	   2.603662E+06	   4.587166E+07	  -6.755598E+07	   3.523146E+05	   6.050379E+05	   1.041136E+06	   6.050375E+05	  -4.727107E-02	   1.822316E-01	  -1.125075E-01	   1.597531E-01	  -8.155225E+04	   5.603524E+05	  -7.638819E+05	   5.603523E+05	  -1.484061E-01	   3.791005E+00	  -8.329803E-01	   4.485915E+00	  -2.881849E+06	  -7.392706E+06	  -1.154523E+07	  -7.392694E+06	   5.620109E-02	   1.321246E+00	  -4.583915E-01	   1.325214E+00	   0.000000E+00	   0.000000E+00	   0.000000E+00	   0.000000E+00	   0.000000E+00	   0.000000E+00	   0.000000E+00	   0.000000E+00	   0.000000E+00	   0.000000E+00	   0.000000E+00	   0.000000E+00	   0.000000E+00	   0.000000E+00	   0.000000E+00	   0.000000E+00	   0.000000E+00	   0.000000E+00	   0.000000E+00	   0.000000E+00	   0.000000E+00	   0.000000E+00	   0.000000E+00	   0.000000E+00
    0.3500	  -7.208607E-01	   2.618327E+06	   4.586901E+07	  -6.775244E+07	   3.562718E+05	   6.167449E+05	   1.028003E+06	   6.167446E+05	  -4.697185E-02	   1.829063E-01	  -1.113041E-01	   1.610060E-01	  -8.056509E+04	   5.587359E+05	  -7.651510E+05	   5.587358E+05	  -1.450184E-01	   3.823040E+00	  -8.207679E-01	   4.513087E+00	  -2.904216E+06	  -7.559525E+06	  -1.136078E+07	  -7.559514E+06	   5.556021E-02	   1.315447E+00	  -4.638652E-01	   1.319337E+00	   0.000000E+00	   0.000000E+00	   0.000000E+00	   0.000000E+00	   0.000000E+00	   0.000000E+00	   0.000000E+00	   0.000000E+00	   0.000000E+00	   0.000000E+00	   0.000000E+00	   0.000000E+00	   0.000000E+00	   0.000000E+00	   0.000000E+00	   0.000000E+00	   0.000000E+00	   0.000000E+00	   0.000000E+00	   0.000000E+00	   0.000000E+00	   0.000000E+00	   0.000000E+00	   0.000000E+00
    0.3625	  -7.120751E-01	   2.632992E+06	   4.586638E+07	  -6.794894E+07	   3.602290E+05	   6.284520E+05	   1.014869E+06	   6.284516E+05	  -4.667262E-02	   1.835810E-01	  -1.101008E-01	   1.622589E-01	  -7.957795E+04	   5.571193E+05	  -7.664201E+05	   5.571192E+05	  -1.416308E-01	   3.855076E+00	  -8.085555E-01	   4.540259E+00	  -2.926582E+06	  -7.726344E+06	  -1.117632E+07	  -7.726333E+06	   5.491933E-02	   1.309647E+00	  -4.693389E-01	   1.313460E+00	   0.000000E+00	   0.000000E+00	   0.000000E+00	   0.000000E+00	   0.000000E+00	   0.000000E+00	   0.000000E+00	   0.000000E+00	   0.000000E+00	   0.000000E+00	   0.000000E+00	   0.000000E+00	   0.000000E+00	   0.000000E+00	   0.000000E+00	   0.000000E+00	   0.000000E+00	   0.000000E+00	   0.000000E+00	   0.000000E+00	   0.000000E+00	   0.000000E+00	   0.000000E+00	   0.000000E+00
    0.3750	  -7.032896E-01	   2.647655E+06	   4.586378E+07	  -6.814550E+07	   3.641862E+05	   6.401591E+05	   1.001736E+06	   6.401587E+05	  -4.637340E-02	   1.842557E-01	  -1.088975E-01	   1.635119E-01	  -7.859080E+04	   5.555028E+05	  -7.676891E+05	   5.555028E+05	  -1.382432E-01	   3.887111E+00	  -7.963430E-01	   4.567431E+00	  -2.948949E+06	  -7.893164E+06	  -1.099187E+07	  -7.893152E+06	   5.427846E-02	   1.303848E+00	  -4.748126E-01	   1.307583E+00	   0.000000E+00	   0.000000E+00	   0.000000E+00	   0.000000E+00	   0.000000E+00	   0.000000E+00	   0.000000E+00	   0.000000E+00	   0.000000E+00	   0.000000E+00	   0.000000E+00	   0.000000E+00	   0.000000E+00	   0.000000E+00	   0.000000E+00	   0.000000E+00	   0.000000E+00	   0.000000E+00	   0.000000E+00	   0.000000E+00	   0.000000E+00	   0.000000E+00	   0.000000E+00	   0.000000E+00
    0.3875	  -6.945040E-01	   2.662318E+06	   4.586120E+07	  -6.834209E+07	   3.681434E+05	   6.518661E+05	   9.886026E+05	   6.518658E+05	  -4.607418E-02	   1.849304E-01	  -1.076941E-01	   1.647648E-01	  -7.760364E+04	   5.538862E+05	  -7.689582E+05	   5.538862E+05	  -1.348556E-01	   3.919146E+00	  -7.841306E-01	   4.594603E+00	  -2.971316E+06	  -8.059984E+06	  -1.080741E+07	  -8.059972E+06	   5.363758E-02	   1.298049E+00	  -4.802863E-01	   1.301707E+00	   0.000000E+00	   0.000000E+00	   0.000000E+00	   0.000000E+00	   0.000000E+00	   0.000000E+00	   0.000000E+00	   0.000000E+00	   0.000000E+00	   0.000000E+00	   0.000000E+00	   0.000000E+00	   0.000000E+00	   0.000000E+00	   0.000000E+00	   0.000000E+00	   0.000000E+00	   0.000000E+00	   0.000000E+00	   0.000000E+00	   0.000000E+00	   0.000000E+00	   0.000000E+00	   0.000000E+00
    0.4000	  -6.857184E-01	   2.676981E+06	   4.585864E+07	  -6.853874E+07	   3.721006E+05	   6.635732E+05	   9.754691E+05	   6.635728E+05	  -4.577496E-02	   1.856052E-01	  -1.064908E-01	   1.660177E-01	  -7.661649E+04	   5.522698E+05	  -7.702272E+05	   5.522697E+05	  -1.314679E-01	   3.951182E+00	  -7.719182E-01	   4.621775E+00	  -2.993682E+06	  -8.226804E+06	  -1.062296E+07	  -8.226792E+06	   5.299670E-02	   1.292250E+00	  -4.857600E-01	   1.295830E+00	   0.000000E+00	   0.000000E+00	   0.000000E+00	   0.000000E+00	   0.000000E+00	   0.000000E+00	   0.000000E+00	   0.000000E+00	   0.000000E+00	   0.000000E+00	   0.000000E+00	   0.000000E+00	   0.000000E+00	   0.000000E+00	   0.000000E+00	   0.000000E+00	   0.000000E+00	   0.000000E+00	   0.000000E+00	   0.000000E+00	   0.000000E+00	   0.000000E+00	   0.000000E+00	   0.000000E+00
    0.4125	  -6.752930E-01	   2.688042E+06	   4.585581E+07	  -6.864290E+07	   3.755752E+05	   6.747039E+05	   9.603760E+05	   6.747036E+05	  -4.533892E-02	   1.862544E-01	  -1.051406E-01	   1.672496E-01	  -7.557998E+04	   5.498861E+05	  -7.701953E+05	   5.498861E+05	  -1.279656E-01	   3.981403E+00	  -7.572958E-01	   4.647368E+00	  -3.012272E+06	  -8.387744E+06	  -1.042171E+07	  -8.387733E+06	   5.236617E-02	   1.285378E+00	  -4.902981E-01	   1.288880E+00	   0.000000E+00	   0.000000E+00	   0.000000E+00	   0.000000E+00	   0.000000E+00	   0.000000E+00	   0.000000E+00	   0.000000E+00	   0.000000E+00	   0.000000E+00	   0.000000E+00	   0.000000E+00	   0.000000E+00	   0.000000E+00	   0.000000E+00	   0.000000E+00	   0.000000E+00	   0.000000E+00	   0.000000E+00	   0.000000E+00	   0.000000E+00	   0.000000E+00	   0.000000E+00	   0.000000E+00