
Predictions were generated on 15-Oct-2022 at 11:14:26 using OpenFAST, compiled as a 64-bit application using double precision at commit v3.2.1-174-g07cb65e0
 linked with  NWTC Subroutine Library; ElastoDyn; InflowWind; AeroDyn

Description from the FAST input file: Fixed MHK turbine, based on the RM1 tidal current turbine

Time	TwN1Fbx	TwN3Fby	TwN4Fbz	TwN6Mbx	TwN5Mby	TwN2Mbz	B2N4Fbn	B1N7Fbt	B2N8Fbs	B1N2Mbn	B2N3Mbt	B1N6Mbs	B1FldFz	B2FldMx	HbFbx	HbFby	HbFbz	HbMbx	HbMby	HbMbz	NcFbx	NcFby	NcFbz	NcMbx	NcMby	NcMbz	RtFldFxh	RtFldFyh	RtFldFzg	RtFldMxh	RtFldMyg	RtFldMzh	B1N3SigCr	B2N5SigCr	B1N2SgCav	B2N6SgCav
(s)	(N/m)	(N/m)	(N/m)	(N-m/m)	(N-m/m)	(N-m/m)	(N/m)	(N/m)	(N/m)	(N-m/m)	(N-m/m)	(N-m/m)	(N)	(N-m)	(N)	(N)	(N)	(N-m)	(N-m)	(N-m)	(N)	(N)	(N)	(N-m)	(N-m)	(N-m)	(N)	(N)	(N)	(N-m)	(N-m)	(N-m)	(-)	(-)	(-)	(-)
    0.0000	 0.000E+00	 0.000E+00	-1.240E+04	 0.000E+00	 0.000E+00	 0.000E+00	 4.051E+02	 1.102E+02	-1.070E+04	-1.465E+03	 1.433E+03	-5.984E+00	-6.983E+04	 8.021E+04	 4.748E-27	-5.361E-11	 6.231E+04	 3.923E+04	-1.563E+04	-4.749E-12	 0.000E+00	 0.000E+00	-1.391E+06	 0.000E+00	-1.668E+05	 0.000E+00	 3.897E+05	-1.524E+04	 1.239E+05	 3.505E+05	 3.344E+05	 1.277E-10	 2.803E+01	 1.433E+01	 4.246E+00	 1.344E+00
    0.0200	-1.201E+01	 1.205E-01	-1.240E+04	-5.638E-01	-2.732E+00	-1.824E-06	 4.798E+02	 1.442E+02	-1.070E+04	-1.469E+03	 1.433E+03	-5.692E+00	-6.998E+04	-6.592E+02	-2.830E+01	 1.816E+03	 6.224E+04	 3.923E+04	-1.563E+04	 4.035E+02	 2.970E+02	-6.032E+00	-1.391E+06	 2.664E-01	-1.668E+05	 1.744E+00	 1.227E+05	 1.825E+03	 1.237E+05	 7.600E+04	 3.380E+04	 8.628E+02	 2.628E+01	 1.407E+01	 3.475E+00	 1.017E+00
    0.0400	-4.299E+01	 5.726E-01	-1.240E+04	-2.640E+00	-9.897E+00	-2.915E-05	 5.637E+02	 1.761E+02	-1.069E+04	-1.473E+03	 1.432E+03	-9.518E+00	-7.010E+04	 1.335E+03	-6.665E+01	 3.607E+03	 6.214E+04	 3.922E+04	-1.561E+04	 8.011E+02	 1.055E+03	-2.764E+01	-1.391E+06	 1.248E+00	-1.668E+05	 8.095E+00	 1.199E+05	 9.275E+03	 1.236E+05	 6.443E+04	 5.366E+03	 1.808E+03	 2.898E+01	 1.398E+01	 3.536E+00	 1.001E+00
    0.0600	-8.190E+01	 9.647E-01	-1.240E+04	-4.311E+00	-1.912E+01	-8.186E-05	 6.502E+02	 2.035E+02	-1.069E+04	-1.475E+03	 1.432E+03	-1.258E+01	-7.025E+04	 6.220E+03	-1.250E+02	 5.323E+03	 6.200E+04	 3.922E+04	-1.558E+04	 1.182E+03	 1.993E+03	-4.296E+01	-1.391E+06	 2.038E+00	-1.668E+05	 1.296E+01	 1.269E+05	 1.528E+04	 1.236E+05	 6.134E+04	-5.929E+04	 2.831E+03	 2.860E+01	 1.352E+01	 3.202E+00	 1.060E+00
    0.0800	-1.186E+02	 1.398E+00	-1.240E+04	-6.012E+00	-2.822E+01	-1.430E-04	 7.209E+02	 2.362E+02	-1.068E+04	-1.478E+03	 1.431E+03	-1.381E+01	-7.044E+04	 4.829E+03	-1.875E+02	 7.146E+03	 6.181E+04	 3.921E+04	-1.554E+04	 1.587E+03	 2.850E+03	-5.610E+01	-1.391E+06	 2.844E+00	-1.668E+05	 1.763E+01	 1.278E+05	 1.978E+04	 1.234E+05	 5.220E+04	-7.827E+04	 3.747E+03	 2.606E+01	 1.301E+01	 2.725E+00	 1.061E+00
    0.1000	-1.463E+02	 2.094E+00	-1.240E+04	-8.870E+00	-3.573E+01	-2.385E-04	 7.773E+02	 2.709E+02	-1.067E+04	-1.483E+03	 1.430E+03	-1.425E+01	-7.072E+04	 3.369E+03	-2.425E+02	 9.008E+03	 6.158E+04	 3.920E+04	-1.550E+04	 2.001E+03	 3.453E+03	-8.045E+01	-1.391E+06	 4.197E+00	-1.668E+05	 2.573E+01	 1.300E+05	 2.361E+04	 1.230E+05	 4.761E+04	-6.204E+04	 4.600E+03	 2.719E+01	 1.296E+01	 2.681E+00	 1.051E+00
    0.1200	-1.616E+02	 2.501E+00	-1.240E+04	-1.046E+01	-4.091E+01	-2.819E-04	 8.340E+02	 3.006E+02	-1.066E+04	-1.486E+03	 1.430E+03	-1.524E+01	-7.097E+04	 1.626E+03	-2.888E+02	 1.079E+04	 6.132E+04	 3.920E+04	-1.545E+04	 2.397E+03	 3.716E+03	-9.261E+01	-1.391E+06	 4.951E+00	-1.668E+05	 3.008E+01	 1.285E+05	 2.720E+04	 1.225E+05	 4.183E+04	-4.528E+04	 5.366E+03	 2.813E+01	 1.303E+01	 2.629E+00	 1.044E+00
    0.1400	-1.642E+02	 2.395E+00	-1.240E+04	-9.835E+00	-4.370E+01	-2.299E-04	 8.780E+02	 3.314E+02	-1.065E+04	-1.489E+03	 1.429E+03	-1.625E+01	-7.123E+04	-1.443E+03	-3.234E+02	 1.260E+04	 6.102E+04	 3.919E+04	-1.538E+04	 2.799E+03	 3.631E+03	-8.390E+01	-1.391E+06	 4.655E+00	-1.667E+05	 2.790E+01	 1.211E+05	 3.094E+04	 1.220E+05	 3.164E+04	-2.487E+04	 6.268E+03	 2.607E+01	 1.297E+01	 2.382E+00	 1.030E+00
    0.1600	-1.560E+02	 2.393E+00	-1.240E+04	-9.814E+00	-4.451E+01	-1.914E-04	 9.082E+02	 3.651E+02	-1.063E+04	-1.493E+03	 1.428E+03	-1.663E+01	-7.153E+04	-2.649E+03	-3.501E+02	 1.446E+04	 6.066E+04	 3.919E+04	-1.530E+04	 3.215E+03	 3.248E+03	-8.347E+01	-1.391E+06	 4.646E+00	-1.667E+05	 2.781E+01	 1.165E+05	 3.515E+04	 1.214E+05	 2.531E+04	-1.028E+04	 7.329E+03	 2.598E+01	 1.302E+01	 2.290E+00	 1.016E+00
    0.1800	-1.401E+02	 2.817E+00	-1.240E+04	-1.171E+01	-4.396E+01	-1.793E-04	 9.401E+02	 3.957E+02	-1.062E+04	-1.497E+03	 1.427E+03	-1.728E+01	-7.181E+04	-2.704E+03	-3.738E+02	 1.627E+04	 6.027E+04	 3.919E+04	-1.522E+04	 3.617E+03	 2.646E+03	-1.024E+02	-1.391E+06	 5.542E+00	-1.667E+05	 3.350E+01	 1.135E+05	 3.947E+04	 1.209E+05	 2.105E+04	-4.034E+03	 8.342E+03	 2.751E+01	 1.303E+01	 2.263E+00	 1.005E+00
    0.2000	-1.200E+02	 3.534E+00	-1.240E+04	-1.475E+01	-4.283E+01	-1.304E-04	 9.717E+02	 4.253E+02	-1.060E+04	-1.500E+03	 1.426E+03	-1.803E+01	-7.206E+04	-2.779E+03	-3.969E+02	 1.805E+04	 5.985E+04	 3.918E+04	-1.512E+04	 4.012E+03	 1.917E+03	-1.299E+02	-1.391E+06	 6.978E+00	-1.666E+05	 4.230E+01	 1.058E+05	 4.396E+04	 1.204E+05	 1.482E+04	-4.462E+03	 9.220E+03	 2.683E+01	 1.280E+01	 2.107E+00	 9.967E-01
    0.2200	-9.945E+01	 4.516E+00	-1.240E+04	-1.877E+01	-4.189E+01	-2.893E-05	 9.959E+02	 4.583E+02	-1.058E+04	-1.504E+03	 1.425E+03	-1.800E+01	-7.232E+04	-1.964E+03	-4.237E+02	 1.988E+04	 5.938E+04	 3.918E+04	-1.501E+04	 4.418E+03	 1.157E+03	-1.641E+02	-1.391E+06	 8.885E+00	-1.666E+05	 5.369E+01	 9.882E+04	 4.868E+04	 1.199E+05	 9.901E+03	-1.082E+04	 9.985E+03	 2.630E+01	 1.264E+01	 2.013E+00	 9.917E-01
    0.2400	-8.192E+01	 5.477E+00	-1.240E+04	-2.258E+01	-4.187E+01	 1.216E-04	 1.021E+03	 4.904E+02	-1.055E+04	-1.509E+03	 1.423E+03	-1.761E+01	-7.257E+04	-1.351E+02	-4.597E+02	 2.168E+04	 5.886E+04	 3.917E+04	-1.489E+04	 4.817E+03	 4.552E+02	-1.942E+02	-1.391E+06	 1.069E+01	-1.666E+05	 6.419E+01	 9.569E+04	 5.344E+04	 1.194E+05	 7.034E+03	-2.453E+04	 1.067E+04	 2.778E+01	 1.273E+01	 1.982E+00	 9.920E-01
    0.2600	-6.963E+01	 5.880E+00	-1.240E+04	-2.384E+01	-4.324E+01	 2.711E-04	 1.049E+03	 5.196E+02	-1.053E+04	-1.512E+03	 1.422E+03	-1.727E+01	-7.275E+04	 2.056E+03	-5.068E+02	 2.342E+04	 5.832E+04	 3.917E+04	-1.476E+04	 5.204E+03	-1.307E+02	-1.978E+02	-1.391E+06	 1.129E+01	-1.665E+05	 6.690E+01	 8.988E+04	 5.809E+04	 1.191E+05	 3.880E+03	-4.609E+04	 1.140E+04	 2.820E+01	 1.281E+01	 1.918E+00	 9.964E-01
    0.2800	-6.309E+01	 5.767E+00	-1.240E+04	-2.281E+01	-4.610E+01	 3.671E-04	 1.072E+03	 5.499E+02	-1.050E+04	-1.515E+03	 1.420E+03	-1.640E+01	-7.291E+04	 4.422E+03	-5.645E+02	 2.518E+04	 5.774E+04	 3.916E+04	-1.463E+04	 5.594E+03	-5.861E+02	-1.791E+02	-1.391E+06	 1.080E+01	-1.665E+05	 6.279E+01	 8.266E+04	 6.257E+04	 1.188E+05	 1.275E+03	-7.245E+04	 1.225E+04	 2.758E+01	 1.283E+01	 1.834E+00	 1.002E+00
    0.3000	-6.114E+01	 5.644E+00	-1.240E+04	-2.180E+01	-5.017E+01	 4.311E-04	 1.090E+03	 5.806E+02	-1.047E+04	-1.519E+03	 1.418E+03	-1.503E+01	-7.308E+04	 6.656E+03	-6.320E+02	 2.692E+04	 5.711E+04	 3.915E+04	-1.448E+04	 5.983E+03	-9.396E+02	-1.614E+02	-1.391E+06	 1.033E+01	-1.664E+05	 5.885E+01	 7.906E+04	 6.675E+04	 1.183E+05	-1.991E+02	-9.836E+04	 1.313E+04	 2.856E+01	 1.288E+01	 1.797E+00	 1.004E+00
    0.3200	-6.166E+01	 5.753E+00	-1.240E+04	-2.181E+01	-5.499E+01	 5.014E-04	 1.112E+03	 6.088E+02	-1.044E+04	-1.523E+03	 1.416E+03	-1.363E+01	-7.324E+04	 8.311E+03	-7.065E+02	 2.861E+04	 5.646E+04	 3.914E+04	-1.433E+04	 6.358E+03	-1.245E+03	-1.538E+02	-1.391E+06	 1.034E+01	-1.663E+05	 5.796E+01	 7.501E+04	 7.050E+04	 1.178E+05	-1.834E+03	-1.198E+05	 1.386E+04	 2.963E+01	 1.284E+01	 1.765E+00	 1.004E+00
    0.3400	-6.267E+01	 6.113E+00	-1.240E+04	-2.286E+01	-6.011E+01	 5.973E-04	 1.132E+03	 6.375E+02	-1.040E+04	-1.526E+03	 1.414E+03	-1.192E+01	-7.341E+04	 9.787E+03	-7.847E+02	 3.029E+04	 5.577E+04	 3.913E+04	-1.416E+04	 6.731E+03	-1.551E+03	-1.552E+02	-1.391E+06	 1.084E+01	-1.663E+05	 6.003E+01	 6.854E+04	 7.392E+04	 1.171E+05	-3.286E+03	-1.348E+05	 1.442E+04	 2.928E+01	 1.271E+01	 1.707E+00	 1.002E+00
    0.3600	-6.300E+01	 6.676E+00	-1.240E+04	-2.477E+01	-6.527E+01	 7.294E-04	 1.147E+03	 6.676E+02	-1.037E+04	-1.530E+03	 1.412E+03	-9.756E+00	-7.362E+04	 1.144E+04	-8.650E+02	 3.196E+04	 5.504E+04	 3.912E+04	-1.399E+04	 7.102E+03	-1.887E+03	-1.644E+02	-1.391E+06	 1.174E+01	-1.662E+05	 6.460E+01	 6.416E+04	 7.723E+04	 1.163E+05	-4.219E+03	-1.451E+05	 1.493E+04	 2.963E+01	 1.273E+01	 1.670E+00	 9.993E-01
    0.3800	-6.227E+01	 7.147E+00	-1.240E+04	-2.630E+01	-7.038E+01	 8.631E-04	 1.162E+03	 6.959E+02	-1.033E+04	-1.534E+03	 1.410E+03	-7.671E+00	-7.383E+04	 1.320E+04	-9.472E+02	 3.359E+04	 5.428E+04	 3.911E+04	-1.381E+04	 7.464E+03	-2.261E+03	-1.702E+02	-1.391E+06	 1.247E+01	-1.662E+05	 6.805E+01	 6.093E+04	 8.044E+04	 1.156E+05	-5.340E+03	-1.548E+05	 1.540E+04	 3.076E+01	 1.291E+01	 1.653E+00	 9.982E-01
    0.4000	-6.029E+01	 7.275E+00	-1.240E+04	-2.635E+01	-7.538E+01	 9.445E-04	 1.174E+03	 7.227E+02	-1.029E+04	-1.537E+03	 1.407E+03	-5.697E+00	-7.403E+04	 1.518E+04	-1.031E+03	 3.518E+04	 5.350E+04	 3.910E+04	-1.362E+04	 7.817E+03	-2.679E+03	-1.621E+02	-1.391E+06	 1.249E+01	-1.661E+05	 6.717E+01	 5.550E+04	 8.345E+04	 1.148E+05	-6.270E+03	-1.656E+05	 1.592E+04	 3.078E+01	 1.305E+01	 1.616E+00	 9.982E-01
    0.4200	-5.669E+01	 7.240E+00	-1.240E+04	-2.575E+01	-8.018E+01	 9.926E-04	 1.181E+03	 7.500E+02	-1.025E+04	-1.541E+03	 1.405E+03	-3.511E+00	-7.427E+04	 1.719E+04	-1.114E+03	 3.676E+04	 5.267E+04	 3.909E+04	-1.343E+04	 8.168E+03	-3.149E+03	-1.489E+02	-1.391E+06	 1.221E+01	-1.660E+05	 6.450E+01	 5.063E+04	 8.628E+04	 1.140E+05	-6.772E+03	-1.758E+05	 1.656E+04	 3.073E+01	 1.315E+01	 1.583E+00	 9.974E-01
    0.4400	-5.104E+01	 7.351E+00	-1.240E+04	-2.583E+01	-8.468E+01	 1.071E-03	 1.186E+03	 7.766E+02	-1.021E+04	-1.544E+03	 1.402E+03	-1.284E+00	-7.453E+04	 1.866E+04	-1.198E+03	 3.830E+04	 5.182E+04	 3.908E+04	-1.322E+04	 8.512E+03	-3.680E+03	-1.430E+02	-1.391E+06	 1.225E+01	-1.660E+05	 6.395E+01	 4.782E+04	 8.887E+04	 1.130E+05	-7.577E+03	-1.838E+05	 1.713E+04	 3.170E+01	 1.322E+01	 1.569E+00	 9.942E-01
    0.4600	-4.338E+01	 7.669E+00	-1.240E+04	-2.678E+01	-8.887E+01	 1.199E-03	 1.191E+03	 8.018E+02	-1.017E+04	-1.547E+03	 1.400E+03	 8.691E-01	-7.479E+04	 1.988E+04	-1.281E+03	 3.980E+04	 5.095E+04	 3.907E+04	-1.301E+04	 8.846E+03	-4.271E+03	-1.449E+02	-1.391E+06	 1.271E+01	-1.659E+05	 6.589E+01	 4.396E+04	 9.119E+04	 1.120E+05	-8.436E+03	-1.886E+05	 1.752E+04	 3.226E+01	 1.320E+01	 1.548E+00	 9.901E-01
    0.4800	-3.459E+01	 8.112E+00	-1.240E+04	-2.821E+01	-9.293E+01	 1.358E-03	 1.195E+03	 8.277E+02	-1.012E+04	-1.551E+03	 1.397E+03	 3.218E+00	-7.509E+04	 2.136E+04	-1.365E+03	 4.128E+04	 5.005E+04	 3.906E+04	-1.279E+04	 9.175E+03	-4.899E+03	-1.500E+02	-1.391E+06	 1.338E+01	-1.658E+05	 6.907E+01	 3.959E+04	 9.334E+04	 1.109E+05	-8.799E+03	-1.918E+05	 1.783E+04	 3.226E+01	 1.317E+01	 1.524E+00	 9.871E-01
    0.5000	-2.616E+01	 8.524E+00	-1.240E+04	-2.944E+01	-9.718E+01	 1.504E-03	 1.197E+03	 8.538E+02	-1.007E+04	-1.555E+03	 1.394E+03	 5.708E+00	-7.540E+04	 2.298E+04	-1.451E+03	 4.274E+04	 4.911E+04	 3.905E+04	-1.257E+04	 9.498E+03	-5.525E+03	-1.524E+02	-1.391E+06	 1.397E+01	-1.657E+05	 7.160E+01	 3.695E+04	 9.541E+04	 1.098E+05	-9.138E+03	-1.958E+05	 1.810E+04	 3.305E+01	 1.325E+01	 1.514E+00	 9.861E-01
    0.5200	-1.945E+01	 8.691E+00	-1.240E+04	-2.957E+01	-1.019E+02	 1.552E-03	 1.199E+03	 8.780E+02	-1.002E+04	-1.558E+03	 1.391E+03	 8.080E+00	-7.572E+04	 2.475E+04	-1.541E+03	 4.415E+04	 4.816E+04	 3.904E+04	-1.234E+04	 9.811E+03	-6.114E+03	-1.436E+02	-1.391E+06	 1.404E+01	-1.657E+05	 7.079E+01	 3.428E+04	 9.734E+04	 1.088E+05	-9.537E+03	-2.021E+05	 1.834E+04	 3.395E+01	 1.340E+01	 1.506E+00	 9.871E-01
    0.5400	-1.494E+01	 8.594E+00	-1.240E+04	-2.854E+01	-1.072E+02	 1.473E-03	 1.199E+03	 9.013E+02	-9.976E+03	-1.562E+03	 1.389E+03	 1.047E+01	-7.605E+04	 2.673E+04	-1.635E+03	 4.552E+04	 4.719E+04	 3.903E+04	-1.210E+04	 1.012E+04	-6.653E+03	-1.236E+02	-1.391E+06	 1.355E+01	-1.656E+05	 6.653E+01	 3.063E+04	 9.909E+04	 1.077E+05	-9.577E+03	-2.100E+05	 1.864E+04	 3.415E+01	 1.349E+01	 1.492E+00	 9.889E-01
    0.5600	-1.206E+01	 8.481E+00	-1.240E+04	-2.745E+01	-1.129E+02	 1.363E-03	 1.197E+03	 9.246E+02	-9.925E+03	-1.565E+03	 1.385E+03	 1.300E+01	-7.640E+04	 2.845E+04	-1.732E+03	 4.687E+04	 4.618E+04	 3.901E+04	-1.186E+04	 1.042E+04	-7.155E+03	-1.031E+02	-1.391E+06	 1.304E+01	-1.655E+05	 6.211E+01	 2.798E+04	 1.006E+05	 1.065E+05	-9.675E+03	-2.168E+05	 1.896E+04	 3.466E+01	 1.353E+01	 1.485E+00	 9.893E-01
    0.5800	-9.837E+00	 8.546E+00	-1.240E+04	-2.712E+01	-1.188E+02	 1.307E-03	 1.195E+03	 9.470E+02	-9.873E+03	-1.568E+03	 1.382E+03	 1.555E+01	-7.677E+04	 2.969E+04	-1.831E+03	 4.819E+04	 4.516E+04	 3.900E+04	-1.161E+04	 1.071E+04	-7.646E+03	-8.971E+01	-1.391E+06	 1.289E+01	-1.654E+05	 5.993E+01	 2.603E+04	 1.019E+05	 1.053E+05	-1.019E+04	-2.206E+05	 1.916E+04	 3.563E+01	 1.354E+01	 1.483E+00	 9.875E-01
    0.6000	-7.649E+00	 8.775E+00	-1.240E+04	-2.745E+01	-1.248E+02	 1.301E-03	 1.193E+03	 9.689E+02	-9.820E+03	-1.572E+03	 1.379E+03	 1.809E+01	-7.715E+04	 3.090E+04	-1.931E+03	 4.946E+04	 4.412E+04	 3.899E+04	-1.136E+04	 1.099E+04	-8.140E+03	-8.180E+01	-1.391E+06	 1.305E+01	-1.653E+05	 5.960E+01	 2.329E+04	 1.030E+05	 1.040E+05	-1.061E+04	-2.213E+05	 1.923E+04	 3.606E+01	 1.351E+01	 1.480E+00	 9.851E-01
    0.6200	-5.545E+00	 9.057E+00	-1.240E+04	-2.796E+01	-1.308E+02	 1.297E-03	 1.190E+03	 9.912E+02	-9.765E+03	-1.575E+03	 1.376E+03	 2.074E+01	-7.756E+04	 3.229E+04	-2.032E+03	 5.070E+04	 4.306E+04	 3.898E+04	-1.110E+04	 1.127E+04	-8.635E+03	-7.457E+01	-1.391E+06	 1.329E+01	-1.653E+05	 5.966E+01	 2.078E+04	 1.039E+05	 1.027E+05	-1.080E+04	-2.207E+05	 1.927E+04	 3.638E+01	 1.354E+01	 1.477E+00	 9.837E-01
    0.6400	-3.936E+00	 9.246E+00	-1.240E+04	-2.803E+01	-1.370E+02	 1.223E-03	 1.185E+03	 1.013E+03	-9.710E+03	-1.579E+03	 1.373E+03	 2.335E+01	-7.799E+04	 3.374E+04	-2.135E+03	 5.191E+04	 4.197E+04	 3.896E+04	-1.083E+04	 1.154E+04	-9.122E+03	-6.262E+01	-1.391E+06	 1.333E+01	-1.652E+05	 5.838E+01	 1.911E+04	 1.047E+05	 1.014E+05	-1.107E+04	-2.202E+05	 1.929E+04	 3.719E+01	 1.367E+01	 1.476E+00	 9.836E-01
    0.6600	-2.938E+00	 9.253E+00	-1.240E+04	-2.728E+01	-1.434E+02	 1.023E-03	 1.181E+03	 1.033E+03	-9.653E+03	-1.582E+03	 1.369E+03	 2.580E+01	-7.842E+04	 3.528E+04	-2.239E+03	 5.308E+04	 4.087E+04	 3.895E+04	-1.056E+04	 1.180E+04	-9.595E+03	-4.257E+01	-1.391E+06	 1.298E+01	-1.651E+05	 5.466E+01	 1.707E+04	 1.054E+05	 1.001E+05	-1.129E+04	-2.204E+05	 1.929E+04	 3.776E+01	 1.380E+01	 1.475E+00	 9.841E-01
    0.6800	-2.040E+00	 9.168E+00	-1.240E+04	-2.613E+01	-1.499E+02	 7.411E-04	 1.174E+03	 1.052E+03	-9.596E+03	-1.585E+03	 1.366E+03	 2.821E+01	-7.887E+04	 3.677E+04	-2.344E+03	 5.422E+04	 3.976E+04	 3.894E+04	-1.029E+04	 1.205E+04	-1.007E+04	-1.856E+01	-1.391E+06	 1.244E+01	-1.650E+05	 4.974E+01	 1.482E+04	 1.058E+05	 9.880E+04	-1.139E+04	-2.201E+05	 1.933E+04	 3.797E+01	 1.388E+01	 1.474E+00	 9.840E-01
    0.7000	-4.197E-01	 9.174E+00	-1.240E+04	-2.537E+01	-1.562E+02	 4.813E-04	 1.166E+03	 1.071E+03	-9.538E+03	-1.588E+03	 1.362E+03	 3.063E+01	-7.934E+04	 3.790E+04	-2.448E+03	 5.533E+04	 3.862E+04	 3.892E+04	-1.001E+04	 1.230E+04	-1.056E+04	 1.773E+00	-1.391E+06	 1.209E+01	-1.649E+05	 4.597E+01	 1.335E+04	 1.061E+05	 9.740E+04	-1.172E+04	-2.179E+05	 1.934E+04	 3.853E+01	 1.392E+01	 1.474E+00	 9.823E-01
    0.7200	 2.373E+00	 9.330E+00	-1.240E+04	-2.524E+01	-1.623E+02	 2.776E-04	 1.159E+03	 1.090E+03	-9.479E+03	-1.591E+03	 1.359E+03	 3.296E+01	-7.982E+04	 3.877E+04	-2.551E+03	 5.639E+04	 3.747E+04	 3.891E+04	-9.729E+03	 1.253E+04	-1.109E+04	 1.661E+01	-1.391E+06	 1.203E+01	-1.648E+05	 4.398E+01	 1.200E+04	 1.061E+05	 9.595E+04	-1.224E+04	-2.135E+05	 1.922E+04	 3.918E+01	 1.392E+01	 1.476E+00	 9.794E-01
    0.7400	 5.988E+00	 9.557E+00	-1.240E+04	-2.537E+01	-1.682E+02	 7.872E-05	 1.151E+03	 1.108E+03	-9.419E+03	-1.595E+03	 1.355E+03	 3.525E+01	-8.032E+04	 3.974E+04	-2.654E+03	 5.742E+04	 3.630E+04	 3.890E+04	-9.443E+03	 1.276E+04	-1.164E+04	 2.973E+01	-1.391E+06	 1.210E+01	-1.647E+05	 4.268E+01	 1.034E+04	 1.060E+05	 9.449E+04	-1.259E+04	-2.078E+05	 1.903E+04	 3.949E+01	 1.393E+01	 1.476E+00	 9.772E-01
    0.7600	 9.497E+00	 9.749E+00	-1.240E+04	-2.531E+01	-1.741E+02	-1.817E-04	 1.143E+03	 1.126E+03	-9.358E+03	-1.598E+03	 1.352E+03	 3.752E+01	-8.083E+04	 4.085E+04	-2.756E+03	 5.842E+04	 3.512E+04	 3.889E+04	-9.153E+03	 1.298E+04	-1.219E+04	 4.538E+01	-1.392E+06	 1.207E+01	-1.647E+05	 4.073E+01	 9.096E+03	 1.058E+05	 9.304E+04	-1.279E+04	-2.023E+05	 1.884E+04	 3.995E+01	 1.400E+01	 1.477E+00	 9.765E-01
    0.7800	 1.207E+01	 9.827E+00	-1.240E+04	-2.473E+01	-1.803E+02	-5.530E-04	 1.134E+03	 1.143E+03	-9.296E+03	-1.601E+03	 1.348E+03	 3.966E+01	-8.135E+04	 4.200E+04	-2.860E+03	 5.938E+04	 3.393E+04	 3.887E+04	-8.859E+03	 1.320E+04	-1.271E+04	 6.625E+01	-1.392E+06	 1.180E+01	-1.646E+05	 3.723E+01	 8.224E+03	 1.054E+05	 9.159E+04	-1.299E+04	-1.976E+05	 1.864E+04	 4.065E+01	 1.411E+01	 1.479E+00	 9.768E-01
    0.8000	 1.358E+01	 9.807E+00	-1.240E+04	-2.371E+01	-1.867E+02	-1.028E-03	 1.125E+03	 1.159E+03	-9.234E+03	-1.604E+03	 1.344E+03	 4.167E+01	-8.187E+04	 4.314E+04	-2.966E+03	 6.031E+04	 3.272E+04	 3.886E+04	-8.562E+03	 1.340E+04	-1.321E+04	 9.152E+01	-1.392E+06	 1.132E+01	-1.645E+05	 3.242E+01	 7.112E+03	 1.049E+05	 9.013E+04	-1.313E+04	-1.931E+05	 1.842E+04	 4.108E+01	 1.418E+01	 1.480E+00	 9.771E-01
    0.8200	 1.454E+01	 9.802E+00	-1.240E+04	-2.275E+01	-1.932E+02	-1.521E-03	 1.115E+03	 1.174E+03	-9.171E+03	-1.607E+03	 1.340E+03	 4.364E+01	-8.241E+04	 4.413E+04	-3.072E+03	 6.120E+04	 3.150E+04	 3.885E+04	-8.261E+03	 1.360E+04	-1.369E+04	 1.163E+02	-1.392E+06	 1.088E+01	-1.644E+05	 2.778E+01	 6.142E+03	 1.042E+05	 8.864E+04	-1.330E+04	-1.879E+05	 1.820E+04	 4.141E+01	 1.420E+01	 1.482E+00	 9.765E-01
    0.8400	 1.560E+01	 9.903E+00	-1.240E+04	-2.224E+01	-1.997E+02	-1.963E-03	 1.105E+03	 1.189E+03	-9.108E+03	-1.610E+03	 1.336E+03	 4.557E+01	-8.296E+04	 4.486E+04	-3.178E+03	 6.205E+04	 3.027E+04	 3.884E+04	-7.957E+03	 1.379E+04	-1.418E+04	 1.370E+02	-1.392E+06	 1.064E+01	-1.643E+05	 2.445E+01	 5.618E+03	 1.033E+05	 8.710E+04	-1.365E+04	-1.814E+05	 1.791E+04	 4.198E+01	 1.418E+01	 1.485E+00	 9.747E-01
    0.8600	 1.692E+01	 1.009E+01	-1.240E+04	-2.206E+01	-2.061E+02	-2.374E-03	 1.095E+03	 1.204E+03	-9.043E+03	-1.613E+03	 1.333E+03	 4.741E+01	-8.351E+04	 4.553E+04	-3.283E+03	 6.287E+04	 2.903E+04	 3.882E+04	-7.651E+03	 1.397E+04	-1.467E+04	 1.549E+02	-1.392E+06	 1.056E+01	-1.642E+05	 2.205E+01	 5.038E+03	 1.023E+05	 8.555E+04	-1.401E+04	-1.737E+05	 1.754E+04	 4.245E+01	 1.416E+01	 1.492E+00	 9.727E-01
    0.8800	 1.810E+01	 1.027E+01	-1.240E+04	-2.186E+01	-2.126E+02	-2.821E-03	 1.086E+03	 1.218E+03	-8.978E+03	-1.616E+03	 1.329E+03	 4.919E+01	-8.408E+04	 4.633E+04	-3.388E+03	 6.366E+04	 2.778E+04	 3.881E+04	-7.341E+03	 1.415E+04	-1.516E+04	 1.735E+02	-1.392E+06	 1.047E+01	-1.641E+05	 1.951E+01	 4.395E+03	 1.011E+05	 8.401E+04	-1.422E+04	-1.659E+05	 1.715E+04	 4.274E+01	 1.419E+01	 1.498E+00	 9.717E-01
    0.9000	 1.865E+01	 1.039E+01	-1.240E+04	-2.137E+01	-2.192E+02	-3.345E-03	 1.075E+03	 1.232E+03	-8.912E+03	-1.619E+03	 1.325E+03	 5.087E+01	-8.465E+04	 4.722E+04	-3.494E+03	 6.441E+04	 2.652E+04	 3.880E+04	-7.029E+03	 1.431E+04	-1.563E+04	 1.949E+02	-1.392E+06	 1.025E+01	-1.640E+05	 1.615E+01	 4.078E+03	 9.990E+04	 8.247E+04	-1.435E+04	-1.583E+05	 1.675E+04	 4.317E+01	 1.425E+01	 1.505E+00	 9.716E-01
    0.9200	 1.852E+01	 1.044E+01	-1.240E+04	-2.060E+01	-2.259E+02	-3.949E-03	 1.065E+03	 1.244E+03	-8.846E+03	-1.622E+03	 1.321E+03	 5.239E+01	-8.522E+04	 4.808E+04	-3.600E+03	 6.512E+04	 2.525E+04	 3.879E+04	-6.714E+03	 1.447E+04	-1.608E+04	 2.190E+02	-1.392E+06	 9.888E+00	-1.639E+05	 1.194E+01	 3.867E+03	 9.854E+04	 8.094E+04	-1.448E+04	-1.511E+05	 1.634E+04	 4.360E+01	 1.432E+01	 1.514E+00	 9.717E-01
    0.9400	 1.823E+01	 1.048E+01	-1.240E+04	-1.977E+01	-2.326E+02	-4.589E-03	 1.054E+03	 1.256E+03	-8.779E+03	-1.625E+03	 1.317E+03	 5.379E+01	-8.580E+04	 4.884E+04	-3.706E+03	 6.580E+04	 2.397E+04	 3.877E+04	-6.397E+03	 1.462E+04	-1.653E+04	 2.435E+02	-1.392E+06	 9.503E+00	-1.639E+05	 7.597E+00	 3.567E+03	 9.704E+04	 7.940E+04	-1.463E+04	-1.437E+05	 1.592E+04	 4.381E+01	 1.434E+01	 1.521E+00	 9.711E-01
    0.9600	 1.849E+01	 1.058E+01	-1.240E+04	-1.921E+01	-2.392E+02	-5.202E-03	 1.043E+03	 1.267E+03	-8.712E+03	-1.628E+03	 1.313E+03	 5.512E+01	-8.639E+04	 4.943E+04	-3.812E+03	 6.645E+04	 2.268E+04	 3.876E+04	-6.077E+03	 1.477E+04	-1.699E+04	 2.654E+02	-1.392E+06	 9.242E+00	-1.638E+05	 4.034E+00	 3.472E+03	 9.539E+04	 7.782E+04	-1.486E+04	-1.356E+05	 1.547E+04	 4.402E+01	 1.431E+01	 1.529E+00	 9.695E-01
    0.9800	 1.957E+01	 1.075E+01	-1.240E+04	-1.895E+01	-2.455E+02	-5.780E-03	 1.032E+03	 1.278E+03	-8.645E+03	-1.631E+03	 1.309E+03	 5.637E+01	-8.698E+04	 4.990E+04	-3.915E+03	 6.706E+04	 2.138E+04	 3.875E+04	-5.755E+03	 1.490E+04	-1.747E+04	 2.844E+02	-1.392E+06	 9.126E+00	-1.637E+05	 1.384E+00	 3.591E+03	 9.361E+04	 7.621E+04	-1.514E+04	-1.270E+05	 1.496E+04	 4.434E+01	 1.428E+01	 1.541E+00	 9.676E-01
    1.0000	 2.114E+01	 1.094E+01	-1.240E+04	-1.878E+01	-2.518E+02	-6.370E-03	 1.021E+03	 1.289E+03	-8.576E+03	-1.634E+03	 1.305E+03	 5.750E+01	-8.758E+04	 5.041E+04	-4.018E+03	 6.764E+04	 2.008E+04	 3.874E+04	-5.431E+03	 1.503E+04	-1.797E+04	 3.025E+02	-1.392E+06	 9.050E+00	-1.636E+05	-1.030E+00	 3.654E+03	 9.174E+04	 7.461E+04	-1.535E+04	-1.181E+05	 1.441E+04	 4.455E+01	 1.427E+01	 1.552E+00	 9.662E-01
    1.0200	 2.256E+01	 1.110E+01	-1.240E+04	-1.848E+01	-2.580E+02	-7.010E-03	 1.010E+03	 1.299E+03	-8.507E+03	-1.636E+03	 1.300E+03	 5.852E+01	-8.818E+04	 5.101E+04	-4.120E+03	 6.818E+04	 1.876E+04	 3.872E+04	-5.104E+03	 1.515E+04	-1.845E+04	 3.219E+02	-1.393E+06	 8.911E+00	-1.635E+05	-3.810E+00	 3.793E+03	 8.977E+04	 7.303E+04	-1.546E+04	-1.096E+05	 1.386E+04	 4.471E+01	 1.429E+01	 1.564E+00	 9.656E-01
    1.0400	 2.343E+01	 1.121E+01	-1.240E+04	-1.801E+01	-2.644E+02	-7.700E-03	 9.989E+02	 1.309E+03	-8.438E+03	-1.639E+03	 1.296E+03	 5.941E+01	-8.879E+04	 5.162E+04	-4.223E+03	 6.868E+04	 1.744E+04	 3.871E+04	-4.776E+03	 1.526E+04	-1.893E+04	 3.425E+02	-1.393E+06	 8.697E+00	-1.634E+05	-7.031E+00	 4.145E+03	 8.772E+04	 7.144E+04	-1.554E+04	-1.015E+05	 1.330E+04	 4.496E+01	 1.432E+01	 1.577E+00	 9.653E-01
    1.0600	 2.388E+01	 1.131E+01	-1.240E+04	-1.749E+01	-2.708E+02	-8.412E-03	 9.875E+02	 1.317E+03	-8.369E+03	-1.642E+03	 1.292E+03	 6.015E+01	-8.940E+04	 5.214E+04	-4.325E+03	 6.916E+04	 1.612E+04	 3.870E+04	-4.446E+03	 1.537E+04	-1.939E+04	 3.633E+02	-1.393E+06	 8.457E+00	-1.633E+05	-1.036E+01	 4.529E+03	 8.556E+04	 6.985E+04	-1.563E+04	-9.350E+04	 1.273E+04	 4.514E+01	 1.431E+01	 1.590E+00	 9.648E-01
    1.0800	 2.442E+01	 1.144E+01	-1.240E+04	-1.709E+01	-2.772E+02	-9.111E-03	 9.761E+02	 1.325E+03	-8.300E+03	-1.644E+03	 1.288E+03	 6.079E+01	-9.002E+04	 5.254E+04	-4.427E+03	 6.960E+04	 1.479E+04	 3.869E+04	-4.114E+03	 1.547E+04	-1.985E+04	 3.828E+02	-1.393E+06	 8.272E+00	-1.632E+05	-1.333E+01	 4.924E+03	 8.328E+04	 6.823E+04	-1.576E+04	-8.549E+04	 1.214E+04	 4.520E+01	 1.426E+01	 1.601E+00	 9.635E-01
    1.1000	 2.536E+01	 1.160E+01	-1.240E+04	-1.688E+01	-2.834E+02	-9.778E-03	 9.648E+02	 1.332E+03	-8.229E+03	-1.647E+03	 1.284E+03	 6.135E+01	-9.064E+04	 5.284E+04	-4.528E+03	 7.000E+04	 1.345E+04	 3.868E+04	-3.781E+03	 1.556E+04	-2.032E+04	 4.000E+02	-1.393E+06	 8.179E+00	-1.631E+05	-1.567E+01	 5.484E+03	 8.090E+04	 6.659E+04	-1.591E+04	-7.736E+04	 1.151E+04	 4.531E+01	 1.419E+01	 1.614E+00	 9.619E-01
    1.1200	 2.660E+01	 1.179E+01	-1.240E+04	-1.678E+01	-2.896E+02	-1.043E-02	 9.538E+02	 1.340E+03	-8.159E+03	-1.650E+03	 1.280E+03	 6.181E+01	-9.126E+04	 5.312E+04	-4.628E+03	 7.037E+04	 1.211E+04	 3.867E+04	-3.446E+03	 1.564E+04	-2.079E+04	 4.159E+02	-1.393E+06	 8.137E+00	-1.630E+05	-1.767E+01	 6.127E+03	 7.845E+04	 6.495E+04	-1.604E+04	-6.925E+04	 1.085E+04	 4.543E+01	 1.413E+01	 1.626E+00	 9.604E-01
    1.1400	 2.769E+01	 1.196E+01	-1.240E+04	-1.665E+01	-2.957E+02	-1.110E-02	 9.428E+02	 1.346E+03	-8.088E+03	-1.652E+03	 1.275E+03	 6.215E+01	-9.189E+04	 5.347E+04	-4.728E+03	 7.070E+04	 1.076E+04	 3.865E+04	-3.109E+03	 1.571E+04	-2.126E+04	 4.318E+02	-1.393E+06	 8.080E+00	-1.630E+05	-1.972E+01	 6.751E+03	 7.592E+04	 6.333E+04	-1.610E+04	-6.141E+04	 1.018E+04	 4.547E+01	 1.410E+01	 1.638E+00	 9.595E-01
    1.1600	 2.830E+01	 1.211E+01	-1.240E+04	-1.646E+01	-3.019E+02	-1.179E-02	 9.316E+02	 1.352E+03	-8.017E+03	-1.655E+03	 1.271E+03	 6.237E+01	-9.252E+04	 5.384E+04	-4.827E+03	 7.101E+04	 9.404E+03	 3.864E+04	-2.771E+03	 1.578E+04	-2.171E+04	 4.479E+02	-1.393E+06	 7.992E+00	-1.629E+05	-2.191E+01	 7.468E+03	 7.333E+04	 6.171E+04	-1.610E+04	-5.398E+04	 9.504E+03	 4.549E+01	 1.408E+01	 1.650E+00	 9.589E-01
    1.1800	 2.856E+01	 1.225E+01	-1.240E+04	-1.625E+01	-3.082E+02	-1.247E-02	 9.201E+02	 1.357E+03	-7.945E+03	-1.657E+03	 1.267E+03	 6.244E+01	-9.316E+04	 5.415E+04	-4.927E+03	 7.127E+04	 8.047E+03	 3.863E+04	-2.432E+03	 1.584E+04	-2.216E+04	 4.635E+02	-1.393E+06	 7.900E+00	-1.628E+05	-2.406E+01	 8.290E+03	 7.068E+04	 6.008E+04	-1.610E+04	-4.687E+04	 8.829E+03	 4.551E+01	 1.405E+01	 1.662E+00	 9.582E-01
    1.2000	 2.892E+01	 1.241E+01	-1.240E+04	-1.611E+01	-3.144E+02	-1.313E-02	 9.086E+02	 1.362E+03	-7.874E+03	-1.660E+03	 1.262E+03	 6.238E+01	-9.380E+04	 5.436E+04	-5.026E+03	 7.150E+04	 6.685E+03	 3.862E+04	-2.091E+03	 1.589E+04	-2.260E+04	 4.781E+02	-1.393E+06	 7.839E+00	-1.627E+05	-2.596E+01	 9.101E+03	 6.794E+04	 5.845E+04	-1.612E+04	-3.999E+04	 8.139E+03	 4.544E+01	 1.398E+01	 1.672E+00	 9.569E-01
    1.2200	 2.981E+01	 1.257E+01	-1.240E+04	-1.607E+01	-3.204E+02	-1.378E-02	 8.973E+02	 1.366E+03	-7.802E+03	-1.662E+03	 1.258E+03	 6.224E+01	-9.444E+04	 5.449E+04	-5.123E+03	 7.170E+04	 5.320E+03	 3.861E+04	-1.749E+03	 1.593E+04	-2.306E+04	 4.911E+02	-1.394E+06	 7.824E+00	-1.626E+05	-2.750E+01	 9.934E+03	 6.513E+04	 5.681E+04	-1.617E+04	-3.330E+04	 7.429E+03	 4.532E+01	 1.388E+01	 1.680E+00	 9.550E-01
    1.2400	 3.126E+01	 1.275E+01	-1.240E+04	-1.611E+01	-3.263E+02	-1.441E-02	 8.861E+02	 1.369E+03	-7.729E+03	-1.664E+03	 1.254E+03	 6.201E+01	-9.509E+04	 5.457E+04	-5.219E+03	 7.186E+04	 3.951E+03	 3.860E+04	-1.407E+03	 1.597E+04	-2.353E+04	 5.029E+02	-1.394E+06	 7.846E+00	-1.625E+05	-2.876E+01	 1.085E+04	 6.227E+04	 5.516E+04	-1.620E+04	-2.686E+04	 6.694E+03	 4.523E+01	 1.379E+01	 1.688E+00	 9.531E-01
    1.2600	 3.293E+01	 1.293E+01	-1.240E+04	-1.617E+01	-3.322E+02	-1.504E-02	 8.751E+02	 1.373E+03	-7.657E+03	-1.667E+03	 1.249E+03	 6.167E+01	-9.574E+04	 5.467E+04	-5.315E+03	 7.199E+04	 2.579E+03	 3.859E+04	-1.063E+03	 1.600E+04	-2.400E+04	 5.139E+02	-1.394E+06	 7.878E+00	-1.624E+05	-2.989E+01	 1.179E+04	 5.936E+04	 5.353E+04	-1.620E+04	-2.077E+04	 5.944E+03	 4.514E+01	 1.372E+01	 1.697E+00	 9.516E-01
    1.2800	 3.444E+01	 1.309E+01	-1.240E+04	-1.624E+01	-3.380E+02	-1.566E-02	 8.638E+02	 1.375E+03	-7.584E+03	-1.669E+03	 1.245E+03	 6.121E+01	-9.640E+04	 5.480E+04	-5.410E+03	 7.208E+04	 1.205E+03	 3.858E+04	-7.183E+02	 1.602E+04	-2.447E+04	 5.243E+02	-1.394E+06	 7.912E+00	-1.623E+05	-3.094E+01	 1.274E+04	 5.642E+04	 5.191E+04	-1.614E+04	-1.508E+04	 5.197E+03	 4.499E+01	 1.367E+01	 1.704E+00	 9.504E-01
    1.3000	 3.569E+01	 1.326E+01	-1.240E+04	-1.633E+01	-3.438E+02	-1.624E-02	 8.523E+02	 1.377E+03	-7.511E+03	-1.671E+03	 1.241E+03	 6.062E+01	-9.706E+04	 5.489E+04	-5.504E+03	 7.214E+04	-1.720E+02	 3.857E+04	-3.729E+02	 1.603E+04	-2.492E+04	 5.337E+02	-1.394E+06	 7.961E+00	-1.622E+05	-3.182E+01	 1.377E+04	 5.344E+04	 5.029E+04	-1.606E+04	-9.793E+03	 4.457E+03	 4.484E+01	 1.360E+01	 1.711E+00	 9.494E-01
    1.3200	 3.694E+01	 1.343E+01	-1.240E+04	-1.648E+01	-3.496E+02	-1.680E-02	 8.406E+02	 1.377E+03	-7.439E+03	-1.673E+03	 1.236E+03	 5.990E+01	-9.772E+04	 5.491E+04	-5.598E+03	 7.216E+04	-1.551E+03	 3.856E+04	-2.677E+01	 1.604E+04	-2.538E+04	 5.421E+02	-1.394E+06	 8.031E+00	-1.622E+05	-3.248E+01	 1.484E+04	 5.041E+04	 4.866E+04	-1.599E+04	-4.870E+03	 3.714E+03	 4.467E+01	 1.351E+01	 1.717E+00	 9.482E-01
    1.3400	 3.852E+01	 1.359E+01	-1.240E+04	-1.665E+01	-3.553E+02	-1.735E-02	 8.291E+02	 1.378E+03	-7.365E+03	-1.675E+03	 1.232E+03	 5.908E+01	-9.839E+04	 5.485E+04	-5.692E+03	 7.214E+04	-2.931E+03	 3.855E+04	 3.199E+02	 1.603E+04	-2.584E+04	 5.495E+02	-1.394E+06	 8.115E+00	-1.621E+05	-3.299E+01	 1.590E+04	 4.735E+04	 4.704E+04	-1.593E+04	-3.122E+02	 2.958E+03	 4.444E+01	 1.340E+01	 1.722E+00	 9.467E-01
    1.3600	 4.050E+01	 1.375E+01	-1.240E+04	-1.683E+01	-3.609E+02	-1.789E-02	 8.177E+02	 1.378E+03	-7.292E+03	-1.677E+03	 1.227E+03	 5.817E+01	-9.906E+04	 5.474E+04	-5.783E+03	 7.209E+04	-4.312E+03	 3.854E+04	 6.671E+02	 1.602E+04	-2.631E+04	 5.561E+02	-1.394E+06	 8.204E+00	-1.620E+05	-3.339E+01	 1.698E+04	 4.426E+04	 4.542E+04	-1.586E+04	 3.848E+03	 2.187E+03	 4.421E+01	 1.328E+01	 1.726E+00	 9.451E-01
    1.3800	 4.265E+01	 1.390E+01	-1.240E+04	-1.703E+01	-3.664E+02	-1.840E-02	 8.064E+02	 1.377E+03	-7.219E+03	-1.679E+03	 1.223E+03	 5.715E+01	-9.973E+04	 5.462E+04	-5.875E+03	 7.200E+04	-5.694E+03	 3.853E+04	 1.015E+03	 1.600E+04	-2.678E+04	 5.618E+02	-1.394E+06	 8.303E+00	-1.619E+05	-3.364E+01	 1.811E+04	 4.115E+04	 4.380E+04	-1.576E+04	 7.569E+03	 1.409E+03	 4.399E+01	 1.318E+01	 1.730E+00	 9.438E-01
    1.4000	 4.466E+01	 1.406E+01	-1.240E+04	-1.729E+01	-3.719E+02	-1.887E-02	 7.952E+02	 1.376E+03	-7.145E+03	-1.681E+03	 1.218E+03	 5.600E+01	-1.004E+05	 5.451E+04	-5.965E+03	 7.188E+04	-7.076E+03	 3.852E+04	 1.363E+03	 1.597E+04	-2.725E+04	 5.662E+02	-1.395E+06	 8.425E+00	-1.618E+05	-3.365E+01	 1.925E+04	 3.803E+04	 4.219E+04	-1.563E+04	 1.084E+04	 6.347E+02	 4.374E+01	 1.309E+01	 1.735E+00	 9.429E-01