
FAST Summary File

Predictions were generated on 19-Apr-2023 at 11:08:20 using OpenFAST, compiled as a 64-bit application using double precision at commit v3.4.1-164-gc9aa5554-dirty
  compiled with
    NWTC Subroutine Library
    ElastoDyn
    BeamDyn (unknown version, unknown date) [not called]
    InflowWind
    AeroDyn14 (unknown version, unknown date) [not called]
    AeroDyn
    ServoDyn (unknown version, unknown date) [not called]
    HydroDyn (unknown version, unknown date) [not called]
    SubDyn (unknown version, unknown date) [not called]
    ExtPtfm_MCKF (unknown version, unknown date) [not called]
    MAP (unknown version, unknown date) [not called]
    FEAMooring (unknown version, unknown date) [not called]
    MoorDyn (unknown version, unknown date) [not called]
    OrcaFlexInterface (unknown version, unknown date) [not called]
    IceFloe (unknown version, unknown date) [not called]
    IceDyn (unknown version, unknown date) [not called]


Modeling a fixed-bottom MHK turbine
Description from the FAST input file: 
  Fixed MHK turbine, based on the RM1 tidal current turbine

Interpolation order for input/output time histories: 2 (quadratic)
Number of correction iterations:  5


   Requested Time Steps  
  -------------------------------------------------
  Component          Time Step (s)    Subcycles (-)
  -----------------  ---------------  -------------
  FAST (glue code)    5.000E-03
  InflowWind          5.000E-03              1
  ElastoDyn           5.000E-03              1
  AeroDyn             5.000E-03              1
  FAST output files   2.000E-02              4^-1


   Requested Channels in FAST Output File(s)  
  --------------------------------------------
  Number  Name                  Units                 Generated by
  ------  --------------------  --------------------  ------------
       1  Time                  (s)                   OpenFAST
       2  TwN1Fbx               (N/m)                 AeroDyn
       3  TwN3Fby               (N/m)                 AeroDyn
       4  TwN4Fbz               (N/m)                 AeroDyn
       5  TwN6Mbx               (N-m/m)               AeroDyn
       6  TwN5Mby               (N-m/m)               AeroDyn
       7  TwN2Mbz               (N-m/m)               AeroDyn
       8  B2N4Fbn               (N/m)                 AeroDyn
       9  B1N7Fbt               (N/m)                 AeroDyn
      10  B2N8Fbs               (N/m)                 AeroDyn
      11  B1N2Mbn               (N-m/m)               AeroDyn
      12  B2N3Mbt               (N-m/m)               AeroDyn
      13  B1N6Mbs               (N-m/m)               AeroDyn
      14  B1FldFz               (N)                   AeroDyn
      15  B2FldMx               (N-m)                 AeroDyn
      16  HbFbx                 (N)                   AeroDyn
      17  HbFby                 (N)                   AeroDyn
      18  HbFbz                 (N)                   AeroDyn
      19  HbMbx                 (N-m)                 AeroDyn
      20  HbMby                 (N-m)                 AeroDyn
      21  HbMbz                 (N-m)                 AeroDyn
      22  NcFbx                 (N)                   AeroDyn
      23  NcFby                 (N)                   AeroDyn
      24  NcFbz                 (N)                   AeroDyn
      25  NcMbx                 (N-m)                 AeroDyn
      26  NcMby                 (N-m)                 AeroDyn
      27  NcMbz                 (N-m)                 AeroDyn
      28  RtFldFxh              (N)                   AeroDyn
      29  RtFldFyh              (N)                   AeroDyn
      30  RtFldFzg              (N)                   AeroDyn
      31  RtFldMxh              (N-m)                 AeroDyn
      32  RtFldMyg              (N-m)                 AeroDyn
      33  RtFldMzh              (N-m)                 AeroDyn
      34  B1N3SigCr             (-)                   AeroDyn
      35  B2N5SigCr             (-)                   AeroDyn
      36  B1N2SgCav             (-)                   AeroDyn
      37  B2N6SgCav             (-)                   AeroDyn
