
Linearized model: Predictions were generated on 02-Jan-2026 at 17:39:26 using OpenFAST, compiled on Jan  2 2026 at 15:32:12 as a 64-bit application using double precision at commit v4.1.2-884-g1317aead-dirty
 linked with  NWTC Subroutine Library; ElastoDyn; BeamDyn

Description from the FAST input file: Modal damping for beam rotated and rotating through partial cycle

Simulation information:
   Simulation time:                     0.2500 s
   Rotor Speed:                         6.2832 rad/s
   Azimuth:                             1.5708 rad
   Wind Speed:                          0.0000 m/s
   Number of continuous states:        96
   Number of discrete states:           0
   Number of constraint states:         0
   Number of inputs:                  138
   Number of outputs:                 279
   Jacobians included in this file?   Yes

Order of continuous states:
   Row/Column Operating Point                                                   Rotating Frame? Derivative Order Description
   ---------- ---------------                                                   --------------- ---------------- -----------
          1    0.000000000000E+000                                                     T               2         finite element node 2 (number of elements = 1; element order = 8) translational displacement in X, m
          2    1.678983039526E-005                                                     T               2         finite element node 2 (number of elements = 1; element order = 8) translational displacement in Y, m
          3    4.611292897940E-004                                                     T               2         finite element node 2 (number of elements = 1; element order = 8) translational displacement in Z, m
          4   -7.130306870732E-006                                                     T               2         finite element node 2 (number of elements = 1; element order = 8) rotational displacement in X, rad
          5   -0.000000000000E+000                                                     T               2         finite element node 2 (number of elements = 1; element order = 8) rotational displacement in Y, rad
          6    0.000000000000E+000                                                     T               2         finite element node 2 (number of elements = 1; element order = 8) rotational displacement in Z, rad
          7    0.000000000000E+000                                                     T               2         finite element node 3 (number of elements = 1; element order = 8) translational displacement in X, m
          8    1.947984355640E-004                                                     T               2         finite element node 3 (number of elements = 1; element order = 8) translational displacement in Y, m
          9    1.575714108420E-003                                                     T               2         finite element node 3 (number of elements = 1; element order = 8) translational displacement in Z, m
         10   -2.400572231358E-005                                                     T               2         finite element node 3 (number of elements = 1; element order = 8) rotational displacement in X, rad
         11   -0.000000000000E+000                                                     T               2         finite element node 3 (number of elements = 1; element order = 8) rotational displacement in Y, rad
         12    0.000000000000E+000                                                     T               2         finite element node 3 (number of elements = 1; element order = 8) rotational displacement in Z, rad
         13    0.000000000000E+000                                                     T               2         finite element node 4 (number of elements = 1; element order = 8) translational displacement in X, m
         14    6.841194456938E-004                                                     T               2         finite element node 4 (number of elements = 1; element order = 8) translational displacement in Y, m
         15    2.589403232677E-003                                                     T               2         finite element node 4 (number of elements = 1; element order = 8) translational displacement in Z, m
         16   -3.638781553461E-005                                                     T               2         finite element node 4 (number of elements = 1; element order = 8) rotational displacement in X, rad
         17   -0.000000000000E+000                                                     T               2         finite element node 4 (number of elements = 1; element order = 8) rotational displacement in Y, rad
         18    0.000000000000E+000                                                     T               2         finite element node 4 (number of elements = 1; element order = 8) rotational displacement in Z, rad
         19    0.000000000000E+000                                                     T               2         finite element node 5 (number of elements = 1; element order = 8) translational displacement in X, m
         20    1.420025728959E-003                                                     T               2         finite element node 5 (number of elements = 1; element order = 8) translational displacement in Y, m
         21    3.912923823816E-003                                                     T               2         finite element node 5 (number of elements = 1; element order = 8) translational displacement in Z, m
         22   -4.448056021412E-005                                                     T               2         finite element node 5 (number of elements = 1; element order = 8) rotational displacement in X, rad
         23   -0.000000000000E+000                                                     T               2         finite element node 5 (number of elements = 1; element order = 8) rotational displacement in Y, rad
         24    0.000000000000E+000                                                     T               2         finite element node 5 (number of elements = 1; element order = 8) rotational displacement in Z, rad
         25    0.000000000000E+000                                                     T               2         finite element node 6 (number of elements = 1; element order = 8) translational displacement in X, m
         26    2.279901978415E-003                                                     T               2         finite element node 6 (number of elements = 1; element order = 8) translational displacement in Y, m
         27    4.775361384647E-003                                                     T               2         finite element node 6 (number of elements = 1; element order = 8) translational displacement in Z, m
         28   -4.902569159258E-005                                                     T               2         finite element node 6 (number of elements = 1; element order = 8) rotational displacement in X, rad
         29   -0.000000000000E+000                                                     T               2         finite element node 6 (number of elements = 1; element order = 8) rotational displacement in Y, rad
         30    0.000000000000E+000                                                     T               2         finite element node 6 (number of elements = 1; element order = 8) rotational displacement in Z, rad
         31    0.000000000000E+000                                                     T               2         finite element node 7 (number of elements = 1; element order = 8) translational displacement in X, m
         32    3.043490616866E-003                                                     T               2         finite element node 7 (number of elements = 1; element order = 8) translational displacement in Y, m
         33    5.357317392469E-003                                                     T               2         finite element node 7 (number of elements = 1; element order = 8) translational displacement in Z, m
         34   -4.798944284455E-005                                                     T               2         finite element node 7 (number of elements = 1; element order = 8) rotational displacement in X, rad
         35   -0.000000000000E+000                                                     T               2         finite element node 7 (number of elements = 1; element order = 8) rotational displacement in Y, rad
         36    0.000000000000E+000                                                     T               2         finite element node 7 (number of elements = 1; element order = 8) rotational displacement in Z, rad
         37    0.000000000000E+000                                                     T               2         finite element node 8 (number of elements = 1; element order = 8) translational displacement in X, m
         38    3.579969750159E-003                                                     T               2         finite element node 8 (number of elements = 1; element order = 8) translational displacement in Y, m
         39    5.504532637176E-003                                                     T               2         finite element node 8 (number of elements = 1; element order = 8) translational displacement in Z, m
         40   -4.882969960345E-005                                                     T               2         finite element node 8 (number of elements = 1; element order = 8) rotational displacement in X, rad
         41   -0.000000000000E+000                                                     T               2         finite element node 8 (number of elements = 1; element order = 8) rotational displacement in Y, rad
         42    0.000000000000E+000                                                     T               2         finite element node 8 (number of elements = 1; element order = 8) rotational displacement in Z, rad
         43    0.000000000000E+000                                                     T               2         finite element node 9 (number of elements = 1; element order = 8) translational displacement in X, m
         44    3.826238518688E-003                                                     T               2         finite element node 9 (number of elements = 1; element order = 8) translational displacement in Y, m
         45    5.483640467833E-003                                                     T               2         finite element node 9 (number of elements = 1; element order = 8) translational displacement in Z, m
         46   -4.925549054488E-005                                                     T               2         finite element node 9 (number of elements = 1; element order = 8) rotational displacement in X, rad
         47   -0.000000000000E+000                                                     T               2         finite element node 9 (number of elements = 1; element order = 8) rotational displacement in Y, rad
         48    0.000000000000E+000                                                     T               2         finite element node 9 (number of elements = 1; element order = 8) rotational displacement in Z, rad
         49    0.000000000000E+000                                                     T               2         First time derivative of finite element node 2 (number of elements = 1; element order = 8) translational displacement in X, m/s
         50   -3.149527827088E+001                                                     T               2         First time derivative of finite element node 2 (number of elements = 1; element order = 8) translational displacement in Y, m/s
         51    1.075979334975E-004                                                     T               2         First time derivative of finite element node 2 (number of elements = 1; element order = 8) translational displacement in Z, m/s
         52    6.283190466211E+000                                                     T               2         First time derivative of finite element node 2 (number of elements = 1; element order = 8) rotational displacement in X, rad/s
         53    0.000000000000E+000                                                     T               2         First time derivative of finite element node 2 (number of elements = 1; element order = 8) rotational displacement in Y, rad/s
         54    0.000000000000E+000                                                     T               2         First time derivative of finite element node 2 (number of elements = 1; element order = 8) rotational displacement in Z, rad/s
         55    0.000000000000E+000                                                     T               2         First time derivative of finite element node 3 (number of elements = 1; element order = 8) translational displacement in X, m/s
         56   -1.014263587534E+002                                                     T               2         First time derivative of finite element node 3 (number of elements = 1; element order = 8) translational displacement in Y, m/s
         57    1.230691054489E-003                                                     T               2         First time derivative of finite element node 3 (number of elements = 1; element order = 8) translational displacement in Z, m/s
         58    6.283217879728E+000                                                     T               2         First time derivative of finite element node 3 (number of elements = 1; element order = 8) rotational displacement in X, rad/s
         59    0.000000000000E+000                                                     T               2         First time derivative of finite element node 3 (number of elements = 1; element order = 8) rotational displacement in Y, rad/s
         60    0.000000000000E+000                                                     T               2         First time derivative of finite element node 3 (number of elements = 1; element order = 8) rotational displacement in Z, rad/s
         61    0.000000000000E+000                                                     T               2         First time derivative of finite element node 4 (number of elements = 1; element order = 8) translational displacement in X, m/s
         62   -2.001024597133E+002                                                     T               2         First time derivative of finite element node 4 (number of elements = 1; element order = 8) translational displacement in Y, m/s
         63    4.311712265123E-003                                                     T               2         First time derivative of finite element node 4 (number of elements = 1; element order = 8) translational displacement in Z, m/s
         64    6.283243742268E+000                                                     T               2         First time derivative of finite element node 4 (number of elements = 1; element order = 8) rotational displacement in X, rad/s
         65    0.000000000000E+000                                                     T               2         First time derivative of finite element node 4 (number of elements = 1; element order = 8) rotational displacement in Y, rad/s
         66    0.000000000000E+000                                                     T               2         First time derivative of finite element node 4 (number of elements = 1; element order = 8) rotational displacement in Z, rad/s
         67    0.000000000000E+000                                                     T               2         First time derivative of finite element node 5 (number of elements = 1; element order = 8) translational displacement in X, m/s
         68   -3.141894462476E+002                                                     T               2         First time derivative of finite element node 5 (number of elements = 1; element order = 8) translational displacement in Y, m/s
         69    8.943904964293E-003                                                     T               2         First time derivative of finite element node 5 (number of elements = 1; element order = 8) translational displacement in Z, m/s
         70    6.283157338551E+000                                                     T               2         First time derivative of finite element node 5 (number of elements = 1; element order = 8) rotational displacement in X, rad/s
         71    0.000000000000E+000                                                     T               2         First time derivative of finite element node 5 (number of elements = 1; element order = 8) rotational displacement in Y, rad/s
         72    0.000000000000E+000                                                     T               2         First time derivative of finite element node 5 (number of elements = 1; element order = 8) rotational displacement in Z, rad/s
         73    0.000000000000E+000                                                     T               2         First time derivative of finite element node 6 (number of elements = 1; element order = 8) translational displacement in X, m/s
         74   -4.282714431335E+002                                                     T               2         First time derivative of finite element node 6 (number of elements = 1; element order = 8) translational displacement in Y, m/s
         75    1.435470384713E-002                                                     T               2         First time derivative of finite element node 6 (number of elements = 1; element order = 8) translational displacement in Z, m/s
         76    6.283044510079E+000                                                     T               2         First time derivative of finite element node 6 (number of elements = 1; element order = 8) rotational displacement in X, rad/s
         77    0.000000000000E+000                                                     T               2         First time derivative of finite element node 6 (number of elements = 1; element order = 8) rotational displacement in Y, rad/s
         78    0.000000000000E+000                                                     T               2         First time derivative of finite element node 6 (number of elements = 1; element order = 8) rotational displacement in Z, rad/s
         79    0.000000000000E+000                                                     T               2         First time derivative of finite element node 7 (number of elements = 1; element order = 8) translational displacement in X, m/s
         80   -5.269416231700E+002                                                     T               2         First time derivative of finite element node 7 (number of elements = 1; element order = 8) translational displacement in Y, m/s
         81    1.915836857272E-002                                                     T               2         First time derivative of finite element node 7 (number of elements = 1; element order = 8) translational displacement in Z, m/s
         82    6.283033581020E+000                                                     T               2         First time derivative of finite element node 7 (number of elements = 1; element order = 8) rotational displacement in X, rad/s
         83    0.000000000000E+000                                                     T               2         First time derivative of finite element node 7 (number of elements = 1; element order = 8) rotational displacement in Y, rad/s
         84    0.000000000000E+000                                                     T               2         First time derivative of finite element node 7 (number of elements = 1; element order = 8) rotational displacement in Z, rad/s
         85    0.000000000000E+000                                                     T               2         First time derivative of finite element node 8 (number of elements = 1; element order = 8) translational displacement in X, m/s
         86   -5.968648394870E+002                                                     T               2         First time derivative of finite element node 8 (number of elements = 1; element order = 8) translational displacement in Y, m/s
         87    2.253306219803E-002                                                     T               2         First time derivative of finite element node 8 (number of elements = 1; element order = 8) translational displacement in Z, m/s
         88    6.283049064295E+000                                                     T               2         First time derivative of finite element node 8 (number of elements = 1; element order = 8) rotational displacement in X, rad/s
         89    0.000000000000E+000                                                     T               2         First time derivative of finite element node 8 (number of elements = 1; element order = 8) rotational displacement in Y, rad/s
         90    0.000000000000E+000                                                     T               2         First time derivative of finite element node 8 (number of elements = 1; element order = 8) rotational displacement in Z, rad/s
         91    0.000000000000E+000                                                     T               2         First time derivative of finite element node 9 (number of elements = 1; element order = 8) translational displacement in X, m/s
         92   -6.283564014833E+002                                                     T               2         First time derivative of finite element node 9 (number of elements = 1; element order = 8) translational displacement in Y, m/s
         93    2.408221227757E-002                                                     T               2         First time derivative of finite element node 9 (number of elements = 1; element order = 8) translational displacement in Z, m/s
         94    6.283051422796E+000                                                     T               2         First time derivative of finite element node 9 (number of elements = 1; element order = 8) rotational displacement in X, rad/s
         95    0.000000000000E+000                                                     T               2         First time derivative of finite element node 9 (number of elements = 1; element order = 8) rotational displacement in Y, rad/s
         96    0.000000000000E+000                                                     T               2         First time derivative of finite element node 9 (number of elements = 1; element order = 8) rotational displacement in Z, rad/s

Order of continuous state derivatives:
   Row/Column Operating Point                                                   Rotating Frame? Derivative Order Description
   ---------- ---------------                                                   --------------- ---------------- -----------
          1    0.000000000000E+000                                                     T               2         First time derivative of finite element node 2 (number of elements = 1; element order = 8) translational displacement in X, m/s
          2   -3.149527827088E+001                                                     T               2         First time derivative of finite element node 2 (number of elements = 1; element order = 8) translational displacement in Y, m/s
          3    1.075979334975E-004                                                     T               2         First time derivative of finite element node 2 (number of elements = 1; element order = 8) translational displacement in Z, m/s
          4    6.283190466211E+000                                                     T               2         First time derivative of finite element node 2 (number of elements = 1; element order = 8) rotational displacement in X, rad/s
          5    0.000000000000E+000                                                     T               2         First time derivative of finite element node 2 (number of elements = 1; element order = 8) rotational displacement in Y, rad/s
          6    0.000000000000E+000                                                     T               2         First time derivative of finite element node 2 (number of elements = 1; element order = 8) rotational displacement in Z, rad/s
          7    0.000000000000E+000                                                     T               2         First time derivative of finite element node 3 (number of elements = 1; element order = 8) translational displacement in X, m/s
          8   -1.014263587534E+002                                                     T               2         First time derivative of finite element node 3 (number of elements = 1; element order = 8) translational displacement in Y, m/s
          9    1.230691054489E-003                                                     T               2         First time derivative of finite element node 3 (number of elements = 1; element order = 8) translational displacement in Z, m/s
         10    6.283217879728E+000                                                     T               2         First time derivative of finite element node 3 (number of elements = 1; element order = 8) rotational displacement in X, rad/s
         11    0.000000000000E+000                                                     T               2         First time derivative of finite element node 3 (number of elements = 1; element order = 8) rotational displacement in Y, rad/s
         12    0.000000000000E+000                                                     T               2         First time derivative of finite element node 3 (number of elements = 1; element order = 8) rotational displacement in Z, rad/s
         13    0.000000000000E+000                                                     T               2         First time derivative of finite element node 4 (number of elements = 1; element order = 8) translational displacement in X, m/s
         14   -2.001024597133E+002                                                     T               2         First time derivative of finite element node 4 (number of elements = 1; element order = 8) translational displacement in Y, m/s
         15    4.311712265123E-003                                                     T               2         First time derivative of finite element node 4 (number of elements = 1; element order = 8) translational displacement in Z, m/s
         16    6.283243742268E+000                                                     T               2         First time derivative of finite element node 4 (number of elements = 1; element order = 8) rotational displacement in X, rad/s
         17    0.000000000000E+000                                                     T               2         First time derivative of finite element node 4 (number of elements = 1; element order = 8) rotational displacement in Y, rad/s
         18    0.000000000000E+000                                                     T               2         First time derivative of finite element node 4 (number of elements = 1; element order = 8) rotational displacement in Z, rad/s
         19    0.000000000000E+000                                                     T               2         First time derivative of finite element node 5 (number of elements = 1; element order = 8) translational displacement in X, m/s
         20   -3.141894462476E+002                                                     T               2         First time derivative of finite element node 5 (number of elements = 1; element order = 8) translational displacement in Y, m/s
         21    8.943904964293E-003                                                     T               2         First time derivative of finite element node 5 (number of elements = 1; element order = 8) translational displacement in Z, m/s
         22    6.283157338551E+000                                                     T               2         First time derivative of finite element node 5 (number of elements = 1; element order = 8) rotational displacement in X, rad/s
         23    0.000000000000E+000                                                     T               2         First time derivative of finite element node 5 (number of elements = 1; element order = 8) rotational displacement in Y, rad/s
         24    0.000000000000E+000                                                     T               2         First time derivative of finite element node 5 (number of elements = 1; element order = 8) rotational displacement in Z, rad/s
         25    0.000000000000E+000                                                     T               2         First time derivative of finite element node 6 (number of elements = 1; element order = 8) translational displacement in X, m/s
         26   -4.282714431335E+002                                                     T               2         First time derivative of finite element node 6 (number of elements = 1; element order = 8) translational displacement in Y, m/s
         27    1.435470384713E-002                                                     T               2         First time derivative of finite element node 6 (number of elements = 1; element order = 8) translational displacement in Z, m/s
         28    6.283044510079E+000                                                     T               2         First time derivative of finite element node 6 (number of elements = 1; element order = 8) rotational displacement in X, rad/s