
Linearized model: Predictions were generated on 14-Jan-2026 at 23:20:17 using OpenFAST, compiled on Jan  8 2026 at 20:13:41 as a 64-bit application using double precision at commit HEAD-HASH-NOTFOUND
 linked with  NWTC Subroutine Library; ElastoDyn; BeamDyn

Description from the FAST input file: Modal damping for beam rotated and rotating through partial cycle

Simulation information:
   Simulation time:                     0.2500 s
   Rotor Speed:                         6.2832 rad/s
   Azimuth:                             1.5708 rad
   Wind Speed:                          0.0000 m/s
   Number of continuous states:        96
   Number of discrete states:           0
   Number of constraint states:         0
   Number of inputs:                  138
   Number of outputs:                 279
   Jacobians included in this file?   Yes

Order of continuous states:
   Row/Column Operating Point                                                   Rotating Frame? Derivative Order Description
   ---------- ---------------                                                   --------------- ---------------- -----------
          1    0.000000000000E+000                                                     T               2         finite element node 2 (number of elements = 1; element order = 8) translational displacement in X, m
          2    1.680020884930E-006                                                     T               2         finite element node 2 (number of elements = 1; element order = 8) translational displacement in Y, m
          3    4.611165631151E-004                                                     T               2         finite element node 2 (number of elements = 1; element order = 8) translational displacement in Z, m
          4   -7.122057894046E-007                                                     T               2         finite element node 2 (number of elements = 1; element order = 8) rotational displacement in X, rad
          5   -0.000000000000E+000                                                     T               2         finite element node 2 (number of elements = 1; element order = 8) rotational displacement in Y, rad
          6    0.000000000000E+000                                                     T               2         finite element node 2 (number of elements = 1; element order = 8) rotational displacement in Z, rad
          7    0.000000000000E+000                                                     T               2         finite element node 3 (number of elements = 1; element order = 8) translational displacement in X, m
          8    1.946574636012E-005                                                     T               2         finite element node 3 (number of elements = 1; element order = 8) translational displacement in Y, m
          9    1.575672382866E-003                                                     T               2         finite element node 3 (number of elements = 1; element order = 8) translational displacement in Z, m
         10   -2.395712559657E-006                                                     T               2         finite element node 3 (number of elements = 1; element order = 8) rotational displacement in X, rad
         11   -0.000000000000E+000                                                     T               2         finite element node 3 (number of elements = 1; element order = 8) rotational displacement in Y, rad
         12    0.000000000000E+000                                                     T               2         finite element node 3 (number of elements = 1; element order = 8) rotational displacement in Z, rad
         13    0.000000000000E+000                                                     T               2         finite element node 4 (number of elements = 1; element order = 8) translational displacement in X, m
         14    6.821766099510E-005                                                     T               2         finite element node 4 (number of elements = 1; element order = 8) translational displacement in Y, m
         15    2.589341951070E-003                                                     T               2         finite element node 4 (number of elements = 1; element order = 8) translational displacement in Z, m
         16   -3.619466981987E-006                                                     T               2         finite element node 4 (number of elements = 1; element order = 8) rotational displacement in X, rad
         17   -0.000000000000E+000                                                     T               2         finite element node 4 (number of elements = 1; element order = 8) rotational displacement in Y, rad
         18    0.000000000000E+000                                                     T               2         finite element node 4 (number of elements = 1; element order = 8) rotational displacement in Z, rad
         19    0.000000000000E+000                                                     T               2         finite element node 5 (number of elements = 1; element order = 8) translational displacement in X, m
         20    1.414719513782E-004                                                     T               2         finite element node 5 (number of elements = 1; element order = 8) translational displacement in Y, m
         21    3.912843510877E-003                                                     T               2         finite element node 5 (number of elements = 1; element order = 8) translational displacement in Z, m
         22   -4.435034745070E-006                                                     T               2         finite element node 5 (number of elements = 1; element order = 8) rotational displacement in X, rad
         23   -0.000000000000E+000                                                     T               2         finite element node 5 (number of elements = 1; element order = 8) rotational displacement in Y, rad
         24    0.000000000000E+000                                                     T               2         finite element node 5 (number of elements = 1; element order = 8) rotational displacement in Z, rad
         25    0.000000000000E+000                                                     T               2         finite element node 6 (number of elements = 1; element order = 8) translational displacement in X, m
         26    2.274851429320E-004                                                     T               2         finite element node 6 (number of elements = 1; element order = 8) translational displacement in Y, m
         27    4.775282595691E-003                                                     T               2         finite element node 6 (number of elements = 1; element order = 8) translational displacement in Z, m
         28   -4.915532434864E-006                                                     T               2         finite element node 6 (number of elements = 1; element order = 8) rotational displacement in X, rad
         29   -0.000000000000E+000                                                     T               2         finite element node 6 (number of elements = 1; element order = 8) rotational displacement in Y, rad
         30    0.000000000000E+000                                                     T               2         finite element node 6 (number of elements = 1; element order = 8) rotational displacement in Z, rad
         31    0.000000000000E+000                                                     T               2         finite element node 7 (number of elements = 1; element order = 8) translational displacement in X, m
         32    3.040607582778E-004                                                     T               2         finite element node 7 (number of elements = 1; element order = 8) translational displacement in Y, m
         33    5.357245596895E-003                                                     T               2         finite element node 7 (number of elements = 1; element order = 8) translational displacement in Z, m
         34   -4.804775462377E-006                                                     T               2         finite element node 7 (number of elements = 1; element order = 8) rotational displacement in X, rad
         35   -0.000000000000E+000                                                     T               2         finite element node 7 (number of elements = 1; element order = 8) rotational displacement in Y, rad
         36    0.000000000000E+000                                                     T               2         finite element node 7 (number of elements = 1; element order = 8) rotational displacement in Z, rad
         37    0.000000000000E+000                                                     T               2         finite element node 8 (number of elements = 1; element order = 8) translational displacement in X, m
         38    3.576504622054E-004                                                     T               2         finite element node 8 (number of elements = 1; element order = 8) translational displacement in Y, m
         39    5.504471805914E-003                                                     T               2         finite element node 8 (number of elements = 1; element order = 8) translational displacement in Z, m
         40   -4.864875661326E-006                                                     T               2         finite element node 8 (number of elements = 1; element order = 8) rotational displacement in X, rad
         41   -0.000000000000E+000                                                     T               2         finite element node 8 (number of elements = 1; element order = 8) rotational displacement in Y, rad
         42    0.000000000000E+000                                                     T               2         finite element node 8 (number of elements = 1; element order = 8) rotational displacement in Z, rad
         43    0.000000000000E+000                                                     T               2         finite element node 9 (number of elements = 1; element order = 8) translational displacement in X, m
         44    3.821720446542E-004                                                     T               2         finite element node 9 (number of elements = 1; element order = 8) translational displacement in Y, m
         45    5.483586349102E-003                                                     T               2         finite element node 9 (number of elements = 1; element order = 8) translational displacement in Z, m
         46   -4.901437522506E-006                                                     T               2         finite element node 9 (number of elements = 1; element order = 8) rotational displacement in X, rad
         47   -0.000000000000E+000                                                     T               2         finite element node 9 (number of elements = 1; element order = 8) rotational displacement in Y, rad
         48    0.000000000000E+000                                                     T               2         finite element node 9 (number of elements = 1; element order = 8) rotational displacement in Z, rad
         49    0.000000000000E+000                                                     T               2         First time derivative of finite element node 2 (number of elements = 1; element order = 8) translational displacement in X, m/s
         50   -3.149495834122E+001                                                     T               2         First time derivative of finite element node 2 (number of elements = 1; element order = 8) translational displacement in Y, m/s
         51    1.058002773595E-005                                                     T               2         First time derivative of finite element node 2 (number of elements = 1; element order = 8) translational displacement in Z, m/s
         52    6.283186249769E+000                                                     T               2         First time derivative of finite element node 2 (number of elements = 1; element order = 8) rotational displacement in X, rad/s
         53    0.000000000000E+000                                                     T               2         First time derivative of finite element node 2 (number of elements = 1; element order = 8) rotational displacement in Y, rad/s
         54    0.000000000000E+000                                                     T               2         First time derivative of finite element node 2 (number of elements = 1; element order = 8) rotational displacement in Z, rad/s
         55    0.000000000000E+000                                                     T               2         First time derivative of finite element node 3 (number of elements = 1; element order = 8) translational displacement in X, m/s
         56   -1.014251774235E+002                                                     T               2         First time derivative of finite element node 3 (number of elements = 1; element order = 8) translational displacement in Y, m/s
         57    1.223543929513E-004                                                     T               2         First time derivative of finite element node 3 (number of elements = 1; element order = 8) translational displacement in Z, m/s
         58    6.283188055303E+000                                                     T               2         First time derivative of finite element node 3 (number of elements = 1; element order = 8) rotational displacement in X, rad/s
         59    0.000000000000E+000                                                     T               2         First time derivative of finite element node 3 (number of elements = 1; element order = 8) rotational displacement in Y, rad/s
         60    0.000000000000E+000                                                     T               2         First time derivative of finite element node 3 (number of elements = 1; element order = 8) rotational displacement in Z, rad/s
         61    0.000000000000E+000                                                     T               2         First time derivative of finite element node 4 (number of elements = 1; element order = 8) translational displacement in X, m/s
         62   -2.000995719223E+002                                                     T               2         First time derivative of finite element node 4 (number of elements = 1; element order = 8) translational displacement in Y, m/s
         63    4.287160586897E-004                                                     T               2         First time derivative of finite element node 4 (number of elements = 1; element order = 8) translational displacement in Z, m/s
         64    6.283190966722E+000                                                     T               2         First time derivative of finite element node 4 (number of elements = 1; element order = 8) rotational displacement in X, rad/s
         65    0.000000000000E+000                                                     T               2         First time derivative of finite element node 4 (number of elements = 1; element order = 8) rotational displacement in Y, rad/s
         66    0.000000000000E+000                                                     T               2         First time derivative of finite element node 4 (number of elements = 1; element order = 8) rotational displacement in Z, rad/s
         67    0.000000000000E+000                                                     T               2         First time derivative of finite element node 5 (number of elements = 1; element order = 8) translational displacement in X, m/s
         68   -3.141850371827E+002                                                     T               2         First time derivative of finite element node 5 (number of elements = 1; element order = 8) translational displacement in Y, m/s
         69    8.890589233547E-004                                                     T               2         First time derivative of finite element node 5 (number of elements = 1; element order = 8) translational displacement in Z, m/s
         70    6.283183826236E+000                                                     T               2         First time derivative of finite element node 5 (number of elements = 1; element order = 8) rotational displacement in X, rad/s
         71    0.000000000000E+000                                                     T               2         First time derivative of finite element node 5 (number of elements = 1; element order = 8) rotational displacement in Y, rad/s
         72    0.000000000000E+000                                                     T               2         First time derivative of finite element node 5 (number of elements = 1; element order = 8) rotational displacement in Z, rad/s
         73    0.000000000000E+000                                                     T               2         First time derivative of finite element node 6 (number of elements = 1; element order = 8) translational displacement in X, m/s
         74   -4.282674047655E+002                                                     T               2         First time derivative of finite element node 6 (number of elements = 1; element order = 8) translational displacement in Y, m/s
         75    1.429534229348E-003                                                     T               2         First time derivative of finite element node 6 (number of elements = 1; element order = 8) translational displacement in Z, m/s
         76    6.283171780358E+000                                                     T               2         First time derivative of finite element node 6 (number of elements = 1; element order = 8) rotational displacement in X, rad/s
         77    0.000000000000E+000                                                     T               2         First time derivative of finite element node 6 (number of elements = 1; element order = 8) rotational displacement in Y, rad/s
         78    0.000000000000E+000                                                     T               2         First time derivative of finite element node 6 (number of elements = 1; element order = 8) rotational displacement in Z, rad/s
         79    0.000000000000E+000                                                     T               2         First time derivative of finite element node 7 (number of elements = 1; element order = 8) translational displacement in X, m/s
         80   -5.269387700634E+002                                                     T               2         First time derivative of finite element node 7 (number of elements = 1; element order = 8) translational displacement in Y, m/s
         81    1.910736623915E-003                                                     T               2         First time derivative of finite element node 7 (number of elements = 1; element order = 8) translational displacement in Z, m/s
         82    6.283168944931E+000                                                     T               2         First time derivative of finite element node 7 (number of elements = 1; element order = 8) rotational displacement in X, rad/s
         83    0.000000000000E+000                                                     T               2         First time derivative of finite element node 7 (number of elements = 1; element order = 8) rotational displacement in Y, rad/s
         84    0.000000000000E+000                                                     T               2         First time derivative of finite element node 7 (number of elements = 1; element order = 8) rotational displacement in Z, rad/s
         85    0.000000000000E+000                                                     T               2         First time derivative of finite element node 8 (number of elements = 1; element order = 8) translational displacement in X, m/s
         86   -5.968627133588E+002                                                     T               2         First time derivative of finite element node 8 (number of elements = 1; element order = 8) translational displacement in Y, m/s
         87    2.247344222664E-003                                                     T               2         First time derivative of finite element node 8 (number of elements = 1; element order = 8) translational displacement in Z, m/s
         88    6.283169394027E+000                                                     T               2         First time derivative of finite element node 8 (number of elements = 1; element order = 8) rotational displacement in X, rad/s
         89    0.000000000000E+000                                                     T               2         First time derivative of finite element node 8 (number of elements = 1; element order = 8) rotational displacement in Y, rad/s
         90    0.000000000000E+000                                                     T               2         First time derivative of finite element node 8 (number of elements = 1; element order = 8) rotational displacement in Z, rad/s
         91    0.000000000000E+000                                                     T               2         First time derivative of finite element node 9 (number of elements = 1; element order = 8) translational displacement in X, m/s
         92   -6.283545606386E+002                                                     T               2         First time derivative of finite element node 9 (number of elements = 1; element order = 8) translational displacement in Y, m/s
         93    2.401502003147E-003                                                     T               2         First time derivative of finite element node 9 (number of elements = 1; element order = 8) translational displacement in Z, m/s
         94    6.283169278103E+000                                                     T               2         First time derivative of finite element node 9 (number of elements = 1; element order = 8) rotational displacement in X, rad/s
         95    0.000000000000E+000                                                     T               2         First time derivative of finite element node 9 (number of elements = 1; element order = 8) rotational displacement in Y, rad/s
         96    0.000000000000E+000                                                     T               2         First time derivative of finite element node 9 (number of elements = 1; element order = 8) rotational displacement in Z, rad/s

Order of continuous state derivatives:
   Row/Column Operating Point                                                   Rotating Frame? Derivative Order Description
   ---------- ---------------                                                   --------------- ---------------- -----------
          1    0.000000000000E+000                                                     T               2         First time derivative of finite element node 2 (number of elements = 1; element order = 8) translational displacement in X, m/s
          2   -3.149495834122E+001                                                     T               2         First time derivative of finite element node 2 (number of elements = 1; element order = 8) translational displacement in Y, m/s
          3    1.058002773595E-005                                                     T               2         First time derivative of finite element node 2 (number of elements = 1; element order = 8) translational displacement in Z, m/s
          4    6.283186249769E+000                                                     T               2         First time derivative of finite element node 2 (number of elements = 1; element order = 8) rotational displacement in X, rad/s
          5    0.000000000000E+000                                                     T               2         First time derivative of finite element node 2 (number of elements = 1; element order = 8) rotational displacement in Y, rad/s
          6    0.000000000000E+000                                                     T               2         First time derivative of finite element node 2 (number of elements = 1; element order = 8) rotational displacement in Z, rad/s
          7    0.000000000000E+000                                                     T               2         First time derivative of finite element node 3 (number of elements = 1; element order = 8) translational displacement in X, m/s
          8   -1.014251774235E+002                                                     T               2         First time derivative of finite element node 3 (number of elements = 1; element order = 8) translational displacement in Y, m/s
          9    1.223543929513E-004                                                     T               2         First time derivative of finite element node 3 (number of elements = 1; element order = 8) translational displacement in Z, m/s
         10    6.283188055303E+000                                                     T               2         First time derivative of finite element node 3 (number of elements = 1; element order = 8) rotational displacement in X, rad/s
         11    0.000000000000E+000                                                     T               2         First time derivative of finite element node 3 (number of elements = 1; element order = 8) rotational displacement in Y, rad/s
         12    0.000000000000E+000                                                     T               2         First time derivative of finite element node 3 (number of elements = 1; element order = 8) rotational displacement in Z, rad/s
         13    0.000000000000E+000                                                     T               2         First time derivative of finite element node 4 (number of elements = 1; element order = 8) translational displacement in X, m/s
         14   -2.000995719223E+002                                                     T               2         First time derivative of finite element node 4 (number of elements = 1; element order = 8) translational displacement in Y, m/s
         15    4.287160586897E-004                                                     T               2         First time derivative of finite element node 4 (number of elements = 1; element order = 8) translational displacement in Z, m/s
         16    6.283190966722E+000                                                     T               2         First time derivative of finite element node 4 (number of elements = 1; element order = 8) rotational displacement in X, rad/s
         17    0.000000000000E+000                                                     T               2         First time derivative of finite element node 4 (number of elements = 1; element order = 8) rotational displacement in Y, rad/s
         18    0.000000000000E+000                                                     T               2         First time derivative of finite element node 4 (number of elements = 1; element order = 8) rotational displacement in Z, rad/s
         19    0.000000000000E+000                                                     T               2         First time derivative of finite element node 5 (number of elements = 1; element order = 8) translational displacement in X, m/s
         20   -3.141850371827E+002                                                     T               2         First time derivative of finite element node 5 (number of elements = 1; element order = 8) translational displacement in Y, m/s
         21    8.890589233547E-004                                                     T               2         First time derivative of finite element node 5 (number of elements = 1; element order = 8) translational displacement in Z, m/s
         22    6.283183826236E+000                                                     T               2         First time derivative of finite element node 5 (number of elements = 1; element order = 8) rotational displacement in X, rad/s
         23    0.000000000000E+000                                                     T               2         First time derivative of finite element node 5 (number of elements = 1; element order = 8) rotational displacement in Y, rad/s
         24    0.000000000000E+000                                                     T               2         First time derivative of finite element node 5 (number of elements = 1; element order = 8) rotational displacement in Z, rad/s
         25    0.000000000000E+000                                                     T               2         First time derivative of finite element node 6 (number of elements = 1; element order = 8) translational displacement in X, m/s
         26   -4.282674047655E+002                                                     T               2         First time derivative of finite element node 6 (number of elements = 1; element order = 8) translational displacement in Y, m/s
         27    1.429534229348E-003                                                     T               2         First time derivative of finite element node 6 (number of elements = 1; element order = 8) translational displacement in Z, m/s
         28    6.283171780358E+000                                                     T               2         First time derivative of finite element node 6 (number of elements = 1; element order = 8) rotational displacement in X, rad/s