
Predictions were generated on 02-Jun-2017 at 13:02:01 using BeamDyn (v1.02.00, 9-Dec-2016)




Time        	TipTDxr   	TipTDyr   	TipTDzr   	TipRDxr   	TipRDyr   	TipRDzr   
 (s)            	(m)       	(m)       	(m)       	(-)       	(-)       	(-)       
       0.000000	  0.00000000E+00	  0.00000000E+00	  0.00000000E+00	  0.00000000E+00	  0.00000000E+00	  0.00000000E+00
       0.002000	  0.00000000E+00	  5.49866805E+00	 -2.43173271E+00	 -1.29967878E+00	  0.00000000E+00	  0.00000000E+00
