
Predictions were generated on 14-Feb-2024 at 14:12:44 using HydroDyn Driver, compiled on Feb 13 2024 at 17:43:26 as a 64-bit application using double precision at commit v2.5.0-3856-g75eff1d1-dirty
 linked with  NWTC Subroutine Library

Description from the driver input file: Compatible with HydroDyn v4.00 - Regression test for MHstLMod=2

Time	Wave1Elev	HydroFxi	HydroFyi	HydroFzi	HydroMxi	HydroMyi	HydroMzi	M1N1FBxi	M1N1FByi	M1N1FBzi	M1N1MBxi	M1N1MByi	M1N1MBzi	M1N2FBxi	M1N2FByi	M1N2FBzi	M1N2MBxi	M1N2MByi	M1N2MBzi	M1N3FBxi	M1N3FByi	M1N3FBzi	M1N3MBxi	M1N3MByi	M1N3MBzi	M1N4FBxi	M1N4FByi	M1N4FBzi	M1N4MBxi	M1N4MByi	M1N4MBzi	M1N5FBxi	M1N5FByi	M1N5FBzi	M1N5MBxi	M1N5MByi	M1N5MBzi	M1N6FBxi	M1N6FByi	M1N6FBzi	M1N6MBxi	M1N6MByi	M1N6MBzi	M1N7FBxi	M1N7FByi	M1N7FBzi	M1N7MBxi	M1N7MByi	M1N7MBzi	M1N8FBxi	M1N8FByi	M1N8FBzi	M1N8MBxi	M1N8MByi	M1N8MBzi	M1N9FBxi	M1N9FByi	M1N9FBzi	M1N9MBxi	M1N9MByi	M1N9MBzi
(s)	(m)	(N)	(N)	(N)	(N-m)	(N-m)	(N-m)	(N/m)	(N/m)	(N/m)	(N-m/m)	(N-m/m)	(N-m/m)	(N/m)	(N/m)	(N/m)	(N-m/m)	(N-m/m)	(N-m/m)	(N/m)	(N/m)	(N/m)	(N-m/m)	(N-m/m)	(N-m/m)	(N/m)	(N/m)	(N/m)	(N-m/m)	(N-m/m)	(N-m/m)	(N/m)	(N/m)	(N/m)	(N-m/m)	(N-m/m)	(N-m/m)	(N/m)	(N/m)	(N/m)	(N-m/m)	(N-m/m)	(N-m/m)	(N/m)	(N/m)	(N/m)	(N-m/m)	(N-m/m)	(N-m/m)	(N/m)	(N/m)	(N/m)	(N-m/m)	(N-m/m)	(N-m/m)	(N/m)	(N/m)	(N/m)	(N-m/m)	(N-m/m)	(N-m/m)
    0.0000	  -4.225067E+00	   3.414729E+04	  -2.818773E+04	   3.412105E+06	   2.020966E+07	   2.176114E+07	  -4.043552E+04	  -8.061970E+04	   7.174656E+04	   4.171147E+05	   5.874240E+04	   6.872730E+04	  -1.178923E+03	  -7.127213E+04	   6.205147E+04	   3.675130E+05	   5.436556E+04	   6.367698E+04	  -8.731665E+02	  -5.065796E+04	   4.183985E+04	   2.588550E+05	   4.692366E+04	   5.512459E+04	  -2.463838E+02	  -2.254456E+04	   1.781763E+04	   1.141985E+05	   3.473728E+04	   4.096456E+04	   3.003562E+02	  -2.848890E+03	   2.155968E+03	   1.429911E+04	   1.280798E+04	   1.515331E+04	   2.630350E+02	   0.000000E+00	   0.000000E+00	   0.000000E+00	   0.000000E+00	   0.000000E+00	   0.000000E+00	   0.000000E+00	   0.000000E+00	   0.000000E+00	   0.000000E+00	   0.000000E+00	   0.000000E+00	   0.000000E+00	   0.000000E+00	   0.000000E+00	   0.000000E+00	   0.000000E+00	   0.000000E+00	   0.000000E+00	   0.000000E+00	   0.000000E+00	   0.000000E+00	   0.000000E+00	   0.000000E+00
    0.0500	  -4.182549E+00	   3.538072E+04	  -2.887555E+04	   3.465694E+06	   2.040408E+07	   2.195634E+07	  -4.693982E+04	  -8.086362E+04	   7.215837E+04	   4.185212E+05	   5.871562E+04	   6.868116E+04	  -1.224156E+03	  -7.164455E+04	   6.251311E+04	   3.694940E+05	   5.434295E+04	   6.363750E+04	  -9.129704E+02	  -5.141210E+04	   4.249712E+04	   2.626226E+05	   4.675962E+04	   5.492127E+04	  -2.783599E+02	  -2.366336E+04	   1.867730E+04	   1.197495E+05	   3.655900E+04	   4.311795E+04	   3.318257E+02	  -3.463995E+03	   2.614104E+03	   1.736028E+04	   1.478451E+04	   1.749361E+04	   3.092931E+02	   0.000000E+00	   0.000000E+00	   0.000000E+00	   0.000000E+00	   0.000000E+00	   0.000000E+00	   0.000000E+00	   0.000000E+00	   0.000000E+00	   0.000000E+00	   0.000000E+00	   0.000000E+00	   0.000000E+00	   0.000000E+00	   0.000000E+00	   0.000000E+00	   0.000000E+00	   0.000000E+00	   0.000000E+00	   0.000000E+00	   0.000000E+00	   0.000000E+00	   0.000000E+00	   0.000000E+00
    0.1000	  -4.138999E+00	   3.662718E+04	  -2.954091E+04	   3.519916E+06	   2.059624E+07	   2.214833E+07	  -5.396536E+04	  -8.109689E+04	   7.256944E+04	   4.198836E+05	   5.868531E+04	   6.863062E+04	  -1.270113E+03	  -7.200507E+04	   6.297296E+04	   3.714246E+05	   5.431845E+04	   6.359553E+04	  -9.536589E+02	  -5.214221E+04	   4.314188E+04	   2.662750E+05	   4.661711E+04	   5.474300E+04	  -3.111572E+02	  -2.481175E+04	   1.955882E+04	   1.254400E+05	   3.829779E+04	   4.517320E+04	   3.615538E+02	  -4.126174E+03	   3.105181E+03	   2.064784E+04	   1.665648E+04	   1.971042E+04	   3.541087E+02	   0.000000E+00	   0.000000E+00	   0.000000E+00	   0.000000E+00	   0.000000E+00	   0.000000E+00	   0.000000E+00	   0.000000E+00	   0.000000E+00	   0.000000E+00	   0.000000E+00	   0.000000E+00	   0.000000E+00	   0.000000E+00	   0.000000E+00	   0.000000E+00	   0.000000E+00	   0.000000E+00	   0.000000E+00	   0.000000E+00	   0.000000E+00	   0.000000E+00	   0.000000E+00	   0.000000E+00
    0.1500	  -4.094427E+00	   3.788569E+04	  -3.018166E+04	   3.574714E+06	   2.078573E+07	   2.233665E+07	  -6.153275E+04	  -8.131899E+04	   7.297930E+04	   4.211992E+05	   5.865133E+04	   6.857555E+04	  -1.316751E+03	  -7.235307E+04	   6.343059E+04	   3.733019E+05	   5.429188E+04	   6.355082E+04	  -9.952012E+02	  -5.284854E+04	   4.377461E+04	   2.698142E+05	   4.649246E+04	   5.458545E+04	  -3.448069E+02	  -2.598882E+04	   2.046148E+04	   1.312649E+05	   3.990504E+04	   4.707262E+04	   3.879844E+02	  -4.833859E+03	   3.627800E+03	   2.415298E+04	   1.837880E+04	   2.175022E+04	   3.959655E+02	   0.000000E+00	   0.000000E+00	   0.000000E+00	   0.000000E+00	   0.000000E+00	   0.000000E+00	   0.000000E+00	   0.000000E+00	   0.000000E+00	   0.000000E+00	   0.000000E+00	   0.000000E+00	   0.000000E+00	   0.000000E+00	   0.000000E+00	   0.000000E+00	   0.000000E+00	   0.000000E+00	   0.000000E+00	   0.000000E+00	   0.000000E+00	   0.000000E+00	   0.000000E+00	   0.000000E+00
    0.2000	  -4.048845E+00	   3.915449E+04	  -3.079493E+04	   3.630031E+06	   2.097210E+07	   2.252081E+07	  -6.966302E+04	  -8.152940E+04	   7.338755E+04	   4.224654E+05	   5.861357E+04	   6.851584E+04	  -1.364034E+03	  -7.268793E+04	   6.388558E+04	   3.751231E+05	   5.426304E+04	   6.350318E+04	  -1.037569E+03	  -5.353121E+04	   4.439569E+04	   2.732418E+05	   4.638267E+04	   5.444513E+04	  -3.793279E+02	  -2.719354E+04	   2.138452E+04	   1.372187E+05	   4.133391E+04	   4.876060E+04	   4.094634E+02	  -5.585558E+03	   4.180629E+03	   2.786731E+04	   1.990748E+04	   2.356073E+04	   4.332393E+02	   0.000000E+00	   0.000000E+00	   0.000000E+00	   0.000000E+00	   0.000000E+00	   0.000000E+00	   0.000000E+00	   0.000000E+00	   0.000000E+00	   0.000000E+00	   0.000000E+00	   0.000000E+00	   0.000000E+00	   0.000000E+00	   0.000000E+00	   0.000000E+00	   0.000000E+00	   0.000000E+00	   0.000000E+00	   0.000000E+00	   0.000000E+00	   0.000000E+00	   0.000000E+00	   0.000000E+00
    0.2500	  -4.002264E+00	   4.043204E+04	  -3.137790E+04	   3.685808E+06	   2.115493E+07	   2.270033E+07	  -7.837765E+04	  -8.172765E+04	   7.379373E+04	   4.236800E+05	   5.857194E+04	   6.845137E+04	  -1.411926E+03	  -7.300909E+04	   6.433754E+04	   3.768856E+05	   5.423173E+04	   6.345239E+04	  -1.080732E+03	  -5.419030E+04	   4.500544E+04	   2.765587E+05	   4.628529E+04	   5.431910E+04	  -4.147307E+02	  -2.842488E+04	   2.232719E+04	   1.432960E+05	   4.253914E+04	   5.018329E+04	   4.242196E+02	  -6.379850E+03	   4.762426E+03	   3.178286E+04	   2.119961E+04	   2.509090E+04	   4.641815E+02	   0.000000E+00	   0.000000E+00	   0.000000E+00	   0.000000E+00	   0.000000E+00	   0.000000E+00	   0.000000E+00	   0.000000E+00	   0.000000E+00	   0.000000E+00	   0.000000E+00	   0.000000E+00	   0.000000E+00	   0.000000E+00	   0.000000E+00	   0.000000E+00	   0.000000E+00	   0.000000E+00	   0.000000E+00	   0.000000E+00	   0.000000E+00	   0.000000E+00	   0.000000E+00	   0.000000E+00
    0.3000	  -3.954696E+00	   4.171665E+04	  -3.192795E+04	   3.741984E+06	   2.133379E+07	   2.287475E+07	  -8.769616E+04	  -8.191330E+04	   7.419746E+04	   4.248407E+05	   5.852633E+04	   6.838203E+04	  -1.460378E+03	  -7.331605E+04	   6.478608E+04	   3.785869E+05	   5.419779E+04	   6.339824E+04	  -1.124652E+03	  -5.482576E+04	   4.560404E+04	   2.797656E+05	   4.619822E+04	   5.420493E+04	  -4.510187E+02	  -2.968161E+04	   2.328861E+04	   1.494904E+05	   4.347667E+04	   5.128827E+04	   4.303729E+02	  -7.215256E+03	   5.371913E+03	   3.589142E+04	   2.221307E+04	   2.629056E+04	   4.869290E+02	   0.000000E+00	   0.000000E+00	   0.000000E+00	   0.000000E+00	   0.000000E+00	   0.000000E+00	   0.000000E+00	   0.000000E+00	   0.000000E+00	   0.000000E+00	   0.000000E+00	   0.000000E+00	   0.000000E+00	   0.000000E+00	   0.000000E+00	   0.000000E+00	   0.000000E+00	   0.000000E+00	   0.000000E+00	   0.000000E+00	   0.000000E+00	   0.000000E+00	   0.000000E+00	   0.000000E+00
    0.3500	  -3.906152E+00	   4.300640E+04	  -3.244206E+04	   3.798498E+06	   2.150829E+07	   2.304362E+07	  -9.763889E+04	  -8.208597E+04	   7.459832E+04	   4.259456E+05	   5.847665E+04	   6.830774E+04	  -1.509343E+03	  -7.360833E+04	   6.523084E+04	   3.802250E+05	   5.416103E+04	   6.334056E+04	  -1.169293E+03	  -5.543757E+04	   4.619173E+04	   2.828630E+05	   4.611972E+04	   5.410055E+04	  -4.881924E+02	  -3.096257E+04	   2.426793E+04	   1.557959E+05	   4.410386E+04	   5.202469E+04	   4.259286E+02	  -8.090347E+03	   6.007881E+03	   4.018508E+04	   2.290685E+04	   2.711084E+04	   4.994996E+02	   0.000000E+00	   0.000000E+00	   0.000000E+00	   0.000000E+00	   0.000000E+00	   0.000000E+00	   0.000000E+00	   0.000000E+00	   0.000000E+00	   0.000000E+00	   0.000000E+00	   0.000000E+00	   0.000000E+00	   0.000000E+00	   0.000000E+00	   0.000000E+00	   0.000000E+00	   0.000000E+00	   0.000000E+00	   0.000000E+00	   0.000000E+00	   0.000000E+00	   0.000000E+00	   0.000000E+00
    0.4000	  -3.856644E+00	   4.429954E+04	  -3.291749E+04	   3.855290E+06	   2.167802E+07	   2.320649E+07	  -1.082251E+05	  -8.224531E+04	   7.499593E+04	   4.269928E+05	   5.842282E+04	   6.822841E+04	  -1.558770E+03	  -7.388550E+04	   6.567145E+04	   3.817978E+05	   5.412132E+04	   6.327918E+04	  -1.214612E+03	  -5.602565E+04	   4.676863E+04	   2.858513E+05	   4.604827E+04	   5.400417E+04	  -5.262421E+02	  -3.226644E+04	   2.526423E+04	   1.622057E+05	   4.437929E+04	   5.234319E+04	   4.087802E+02	  -9.003634E+03	   6.669095E+03	   4.465571E+04	   2.324094E+04	   2.750398E+04	   4.997952E+02	   0.000000E+00	   0.000000E+00	   0.000000E+00	   0.000000E+00	   0.000000E+00	   0.000000E+00	   0.000000E+00	   0.000000E+00	   0.000000E+00	   0.000000E+00	   0.000000E+00	   0.000000E+00	   0.000000E+00	   0.000000E+00	   0.000000E+00	   0.000000E+00	   0.000000E+00	   0.000000E+00	   0.000000E+00	   0.000000E+00	   0.000000E+00	   0.000000E+00	   0.000000E+00	   0.000000E+00
    0.4500	  -3.806185E+00	   4.559401E+04	  -3.335127E+04	   3.912296E+06	   2.184258E+07	   2.336294E+07	  -1.194730E+05	  -8.239104E+04	   7.538990E+04	   4.279808E+05	   5.836477E+04	   6.814400E+04	  -1.608602E+03	  -7.414720E+04	   6.610761E+04	   3.833035E+05	   5.407849E+04	   6.321393E+04	  -1.260565E+03	  -5.658995E+04	   4.733489E+04	   2.887308E+05	   4.598255E+04	   5.391427E+04	  -5.651562E+02	  -3.359187E+04	   2.627655E+04	   1.687128E+05	   4.426296E+04	   5.219595E+04	   3.767161E+02	  -9.953604E+03	   7.354321E+03	   4.929510E+04	   2.317652E+04	   2.742360E+04	   4.856087E+02	   0.000000E+00	   0.000000E+00	   0.000000E+00	   0.000000E+00	   0.000000E+00	   0.000000E+00	   0.000000E+00	   0.000000E+00	   0.000000E+00	   0.000000E+00	   0.000000E+00	   0.000000E+00	   0.000000E+00	   0.000000E+00	   0.000000E+00	   0.000000E+00	   0.000000E+00	   0.000000E+00	   0.000000E+00	   0.000000E+00	   0.000000E+00	   0.000000E+00	   0.000000E+00	   0.000000E+00
    0.5000	  -3.754786E+00	   4.688745E+04	  -3.374014E+04	   3.969453E+06	   2.200161E+07	   2.351255E+07	  -1.314012E+05	  -8.252287E+04	   7.577988E+04	   4.289079E+05	   5.830243E+04	   6.805443E+04	  -1.658790E+03	  -7.439308E+04	   6.653897E+04	   3.847405E+05	   5.403243E+04	   6.314467E+04	  -1.307107E+03	  -5.713037E+04	   4.789059E+04	   2.915017E+05	   4.592143E+04	   5.382951E+04	  -6.049187E+02	  -3.493743E+04	   2.730388E+04	   1.753101E+05	   4.371627E+04	   5.153683E+04	   3.274165E+02	  -1.093871E+04	   8.062323E+03	   5.409493E+04	   2.267604E+04	   2.682478E+04	   4.546229E+02	   0.000000E+00	   0.000000E+00	   0.000000E+00	   0.000000E+00	   0.000000E+00	   0.000000E+00	   0.000000E+00	   0.000000E+00	   0.000000E+00	   0.000000E+00	   0.000000E+00	   0.000000E+00	   0.000000E+00	   0.000000E+00	   0.000000E+00	   0.000000E+00	   0.000000E+00	   0.000000E+00	   0.000000E+00	   0.000000E+00	   0.000000E+00	   0.000000E+00	   0.000000E+00	   0.000000E+00
    0.5500	  -3.702461E+00	   4.817791E+04	  -3.408146E+04	   4.026699E+06	   2.215473E+07	   2.365492E+07	  -1.440255E+05	  -8.264060E+04	   7.616548E+04	   4.297731E+05	   5.823576E+04	   6.795966E+04	  -1.709256E+03	  -7.462288E+04	   6.696523E+04	   3.861074E+05	   5.398299E+04	   6.307129E+04	  -1.354180E+03	  -5.764686E+04	   4.843586E+04	   2.941642E+05	   4.586393E+04	   5.374872E+04	  -6.455068E+02	  -3.630164E+04	   2.834523E+04	   1.819901E+05	   4.270220E+04	   5.032150E+04	   2.584641E+02	  -1.195736E+04	   8.791853E+03	   5.904674E+04	   2.170338E+04	   2.566422E+04	   4.044191E+02	   0.000000E+00	   0.000000E+00	   0.000000E+00	   0.000000E+00	   0.000000E+00	   0.000000E+00	   0.000000E+00	   0.000000E+00	   0.000000E+00	   0.000000E+00	   0.000000E+00	   0.000000E+00	   0.000000E+00	   0.000000E+00	   0.000000E+00	   0.000000E+00	   0.000000E+00	   0.000000E+00	   0.000000E+00	   0.000000E+00	   0.000000E+00	   0.000000E+00	   0.000000E+00	   0.000000E+00
    0.6000	  -3.649223E+00	   4.946228E+04	  -3.437138E+04	   4.083973E+06	   2.230159E+07	   2.378967E+07	  -1.573621E+05	  -8.274405E+04	   7.654638E+04	   4.305750E+05	   5.816473E+04	   6.785970E+04	  -1.759948E+03	  -7.483633E+04	   6.738610E+04	   3.874030E+05	   5.393009E+04	   6.299366E+04	  -1.401736E+03	  -5.813938E+04	   4.897076E+04	   2.967187E+05	   4.580916E+04	   5.367090E+04	  -6.868969E+02	  -3.766839E+04	   2.938958E+04	   1.886745E+05	   4.125820E+04	   4.859414E+04	   1.702340E+02	  -1.300798E+04	   9.541726E+03	   6.414230E+04	   2.038099E+04	   2.408720E+04	   3.386553E+02	  -1.465948E+01	   1.000132E+01	   7.092714E+01	   8.422581E+01	   1.001522E+02	   3.285754E+00	   0.000000E+00	   0.000000E+00	   0.000000E+00	   0.000000E+00	   0.000000E+00	   0.000000E+00	   0.000000E+00	   0.000000E+00	   0.000000E+00	   0.000000E+00	   0.000000E+00	   0.000000E+00	   0.000000E+00	   0.000000E+00	   0.000000E+00	   0.000000E+00	   0.000000E+00	   0.000000E+00
    0.6500	  -3.595084E+00	   5.073906E+04	  -3.460445E+04	   4.141214E+06	   2.244187E+07	   2.391643E+07	  -1.714259E+05	  -8.283311E+04	   7.692224E+04	   4.313128E+05	   5.808929E+04	   6.775449E+04	  -1.810791E+03	  -7.503327E+04	   6.780130E+04	   3.886263E+05	   5.387362E+04	   6.291171E+04	  -1.449713E+03	  -5.860789E+04	   4.949538E+04	   2.991655E+05	   4.575636E+04	   5.359514E+04	  -7.290607E+02	  -3.884000E+04	   3.030324E+04	   1.944105E+05	   4.039140E+04	   4.755240E+04	   1.023337E+02	  -1.408876E+04	   1.031104E+04	   6.937338E+04	   2.077635E+04	   2.455252E+04	   3.392597E+02	  -2.399464E+02	   1.629976E+02	   1.158517E+03	   1.312335E+03	   1.560806E+03	   5.218327E+01	   0.000000E+00	   0.000000E+00	   0.000000E+00	   0.000000E+00	   0.000000E+00	   0.000000E+00	   0.000000E+00	   0.000000E+00	   0.000000E+00	   0.000000E+00	   0.000000E+00	   0.000000E+00	   0.000000E+00	   0.000000E+00	   0.000000E+00	   0.000000E+00	   0.000000E+00	   0.000000E+00
    0.7000	  -3.540059E+00	   5.200660E+04	  -3.477966E+04	   4.198352E+06	   2.257524E+07	   2.403487E+07	  -1.862299E+05	  -8.290769E+04	   7.729271E+04	   4.319858E+05	   5.800943E+04	   6.764408E+04	  -1.861711E+03	  -7.521352E+04	   6.821054E+04	   3.897764E+05	   5.381352E+04	   6.282536E+04	  -1.498052E+03	  -5.905238E+04	   5.000976E+04	   3.015049E+05	   4.570486E+04	   5.352068E+04	  -7.719644E+02	  -3.988836E+04	   3.113647E+04	   1.995498E+05	   3.982607E+04	   4.686866E+04	   4.470864E+01	  -1.519786E+04	   1.109823E+04	   7.472991E+04	   2.205613E+04	   2.607004E+04	   3.760302E+02	  -6.022027E+02	   4.073314E+02	   2.901524E+03	   3.126128E+03	   3.718741E+03	   1.265534E+02	   0.000000E+00	   0.000000E+00	   0.000000E+00	   0.000000E+00	   0.000000E+00	   0.000000E+00	   0.000000E+00	   0.000000E+00	   0.000000E+00	   0.000000E+00	   0.000000E+00	   0.000000E+00	   0.000000E+00	   0.000000E+00	   0.000000E+00	   0.000000E+00	   0.000000E+00	   0.000000E+00
    0.7500	  -3.484159E+00	   5.326154E+04	  -3.489412E+04	   4.255322E+06	   2.270139E+07	   2.414466E+07	  -2.017863E+05	  -8.296773E+04	   7.765749E+04	   4.325934E+05	   5.792516E+04	   6.752845E+04	  -1.912637E+03	  -7.537701E+04	   6.861359E+04	   3.908528E+05	   5.374970E+04	   6.273455E+04	  -1.546689E+03	  -5.947288E+04	   5.051398E+04	   3.037377E+05	   4.565407E+04	   5.344681E+04	  -8.155729E+02	  -4.085189E+04	   3.191619E+04	   2.042810E+05	   3.940851E+04	   4.636023E+04	  -8.396977E+00	  -1.633358E+04	   1.190194E+04	   8.020294E+04	   2.375447E+04	   2.808600E+04	   4.313642E+02	  -1.061428E+03	   7.148990E+02	   5.103522E+03	   5.212913E+03	   6.202255E+03	   2.145589E+02	   0.000000E+00	   0.000000E+00	   0.000000E+00	   0.000000E+00	   0.000000E+00	   0.000000E+00	   0.000000E+00	   0.000000E+00	   0.000000E+00	   0.000000E+00	   0.000000E+00	   0.000000E+00	   0.000000E+00	   0.000000E+00	   0.000000E+00	   0.000000E+00	   0.000000E+00	   0.000000E+00
    0.8000	  -3.427400E+00	   5.450104E+04	  -3.494533E+04	   4.312062E+06	   2.282004E+07	   2.424550E+07	  -2.181038E+05	  -8.301327E+04	   7.801624E+04	   4.331351E+05	   5.783648E+04	   6.740767E+04	  -1.963479E+03	  -7.552366E+04	   6.901016E+04	   3.918548E+05	   5.368213E+04	   6.263924E+04	  -1.595552E+03	  -5.986942E+04	   5.100810E+04	   3.058641E+05	   4.560346E+04	   5.337294E+04	  -8.598458E+02	  -4.174626E+04	   3.265363E+04	   2.086816E+05	   3.908365E+04	   4.596168E+04	  -5.898317E+01	  -1.749410E+04	   1.272080E+04	   8.578298E+04	   2.565256E+04	   3.034015E+04	   4.965957E+02	  -1.600233E+03	   1.073242E+03	   7.678209E+03	   7.408478E+03	   8.816004E+03	   3.095452E+02	   0.000000E+00	   0.000000E+00	   0.000000E+00	   0.000000E+00	   0.000000E+00	   0.000000E+00	   0.000000E+00	   0.000000E+00	   0.000000E+00	   0.000000E+00	   0.000000E+00	   0.000000E+00	   0.000000E+00	   0.000000E+00	   0.000000E+00	   0.000000E+00	   0.000000E+00	   0.000000E+00
    0.8500	  -3.369796E+00	   5.572253E+04	  -3.493068E+04	   4.368508E+06	   2.293094E+07	   2.433713E+07	  -2.351927E+05	  -8.304434E+04	   7.836870E+04	   4.336108E+05	   5.774341E+04	   6.728178E+04	  -2.014164E+03	  -7.565349E+04	   6.940005E+04	   3.927824E+05	   5.361077E+04	   6.253943E+04	  -1.644574E+03	  -6.024208E+04	   5.149217E+04	   3.078851E+05	   4.555258E+04	   5.329855E+04	  -9.047408E+02	  -4.258054E+04	   3.335545E+04	   2.127973E+05	   3.882271E+04	   4.563881E+04	  -1.080685E+02	  -1.867758E+04	   1.355347E+04	   9.146062E+04	   2.760531E+04	   3.265979E+04	   5.654713E+02	  -2.207793E+03	   1.474497E+03	   1.057142E+04	   9.596117E+03	   1.142100E+04	   4.062913E+02	   0.000000E+00	   0.000000E+00	   0.000000E+00	   0.000000E+00	   0.000000E+00	   0.000000E+00	   0.000000E+00	   0.000000E+00	   0.000000E+00	   0.000000E+00	   0.000000E+00	   0.000000E+00	   0.000000E+00	   0.000000E+00	   0.000000E+00	   0.000000E+00	   0.000000E+00	   0.000000E+00
    0.9000	  -3.311360E+00	   5.692276E+04	  -3.484746E+04	   4.424594E+06	   2.303383E+07	   2.441928E+07	  -2.530579E+05	  -8.306105E+04	   7.871450E+04	   4.340204E+05	   5.764599E+04	   6.715086E+04	  -2.064589E+03	  -7.576652E+04	   6.978298E+04	   3.936353E+05	   5.353561E+04	   6.243511E+04	  -1.693673E+03	  -6.059096E+04	   5.196624E+04	   3.098012E+05	   4.550102E+04	   5.322320E+04	  -9.502089E+02	  -4.336077E+04	   3.402614E+04	   2.166585E+05	   3.860820E+04	   4.537086E+04	  -1.562509E+02	  -1.988208E+04	   1.439856E+04	   9.722612E+04	   2.950296E+04	   3.491408E+04	   6.327435E+02	  -2.876277E+03	   1.912926E+03	   1.374373E+04	   1.168318E+04	   1.390673E+04	   5.001636E+02	   0.000000E+00	   0.000000E+00	   0.000000E+00	   0.000000E+00	   0.000000E+00	   0.000000E+00	   0.000000E+00	   0.000000E+00	   0.000000E+00	   0.000000E+00	   0.000000E+00	   0.000000E+00	   0.000000E+00	   0.000000E+00	   0.000000E+00	   0.000000E+00	   0.000000E+00	   0.000000E+00
    0.9500	  -3.252106E+00	   5.809913E+04	  -3.469309E+04	   4.480259E+06	   2.312851E+07	   2.449174E+07	  -2.717071E+05	  -8.306354E+04	   7.905342E+04	   4.343640E+05	   5.754427E+04	   6.701498E+04	  -2.114680E+03	  -7.586284E+04	   7.015878E+04	   3.944138E+05	   5.345662E+04	   6.232630E+04	  -1.742780E+03	  -6.091621E+04	   5.243036E+04	   3.116137E+05	   4.544845E+04	   5.314646E+04	  -9.962031E+02	  -4.409130E+04	   3.466900E+04	   2.202877E+05	   3.842854E+04	   4.514407E+04	  -2.039130E+02	  -2.110568E+04	   1.525470E+04	   1.030698E+05	   3.125656E+04	   3.699684E+04	   6.936570E+02	  -3.599515E+03	   2.383993E+03	   1.716399E+04	   1.359199E+04	   1.618043E+04	   5.868068E+02	   0.000000E+00	   0.000000E+00	   0.000000E+00	   0.000000E+00	   0.000000E+00	   0.000000E+00	   0.000000E+00	   0.000000E+00	   0.000000E+00	   0.000000E+00	   0.000000E+00	   0.000000E+00	   0.000000E+00	   0.000000E+00	   0.000000E+00	   0.000000E+00	   0.000000E+00	   0.000000E+00
    1.0000	  -3.192051E+00	   5.924831E+04	  -3.446521E+04	   4.535440E+06	   2.321478E+07	   2.455432E+07	  -2.911408E+05	  -8.305200E+04	   7.938512E+04	   4.346419E+05	   5.743831E+04	   6.687426E+04	  -2.164322E+03	  -7.594258E+04	   7.052720E+04	   3.951179E+05	   5.337384E+04	   6.221305E+04	  -1.791801E+03	  -6.121798E+04	   5.288458E+04	   3.133232E+05	   4.539457E+04	   5.306804E+04	  -1.042666E+03	  -4.477545E+04	   3.528657E+04	   2.237020E+05	   3.827559E+04	   4.494880E+04	  -2.513079E+02	  -2.234638E+04	   1.612052E+04	   1.089818E+05	   3.279105E+04	   3.881832E+04	   7.437126E+02	  -4.372333E+03	   2.883890E+03	   2.080600E+04	   1.525535E+04	   1.816164E+04	   6.619943E+02	   0.000000E+00	   0.000000E+00	   0.000000E+00	   0.000000E+00	   0.000000E+00	   0.000000E+00	   0.000000E+00	   0.000000E+00	   0.000000E+00	   0.000000E+00	   0.000000E+00	   0.000000E+00	   0.000000E+00	   0.000000E+00	   0.000000E+00	   0.000000E+00	   0.000000E+00	   0.000000E+00
    1.0500	  -3.131208E+00	   6.036748E+04	  -3.416125E+04	   4.590076E+06	   2.329247E+07	   2.460685E+07	  -3.113629E+05	  -8.302664E+04	   7.970938E+04	   4.348548E+05	   5.732818E+04	   6.672881E+04	  -2.213437E+03	  -7.600591E+04	   7.088805E+04	   3.957483E+05	   5.328729E+04	   6.209543E+04	  -1.840665E+03	  -6.149649E+04	   5.332895E+04	   3.149311E+05	   4.533912E+04	   5.298764E+04	  -1.089545E+03	  -4.541588E+04	   3.588090E+04	   2.269153E+05	   3.814341E+04	   4.477799E+04	  -2.986096E+02	  -2.360218E+04	   1.699462E+04	   1.149521E+05	   3.404166E+04	   4.030089E+04	   7.785421E+02	  -5.190216E+03	   3.409315E+03	   2.464697E+04	   1.661417E+04	   1.977952E+04	   7.215532E+02	   0.000000E+00	   0.000000E+00	   0.000000E+00	   0.000000E+00	   0.000000E+00	   0.000000E+00	   0.000000E+00	   0.000000E+00	   0.000000E+00	   0.000000E+00	   0.000000E+00	   0.000000E+00	   0.000000E+00	   0.000000E+00	   0.000000E+00	   0.000000E+00	   0.000000E+00	   0.000000E+00
    1.1000	  -3.069592E+00	   6.145339E+04	  -3.377919E+04	   4.644107E+06	   2.336143E+07	   2.464919E+07	  -3.323705E+05	  -8.298776E+04	   8.002589E+04	   4.350030E+05	   5.721399E+04	   6.657879E+04	  -2.261905E+03	  -7.605304E+04	   7.124111E+04	   3.963055E+05	   5.319702E+04	   6.197350E+04	  -1.889269E+03	  -6.175197E+04	   5.376349E+04	   3.164386E+05	   4.528190E+04	   5.290504E+04	  -1.136773E+03	  -4.601472E+04	   3.645364E+04	   2.299388E+05	   3.802752E+04	   4.462634E+04	  -3.459351E+02	  -2.487102E+04	   1.787563E+04	   1.209707E+05	   3.495171E+04	   4.137650E+04	   7.938538E+02	  -6.049109E+03	   3.957314E+03	   2.866640E+04	   1.761606E+04	   2.097109E+04	   7.613327E+02	   0.000000E+00	   0.000000E+00	   0.000000E+00	   0.000000E+00	   0.000000E+00	   0.000000E+00	   0.000000E+00	   0.000000E+00	   0.000000E+00	   0.000000E+00	   0.000000E+00	   0.000000E+00	   0.000000E+00	   0.000000E+00	   0.000000E+00	   0.000000E+00	   0.000000E+00	   0.000000E+00
    1.1500	  -3.007219E+00	   6.250289E+04	  -3.331683E+04	   4.697473E+06	   2.342155E+07	   2.468125E+07	  -3.541619E+05	  -8.293566E+04	   8.033440E+04	   4.350876E+05	   5.709584E+04	   6.642434E+04	  -2.309629E+03	  -7.608425E+04	   7.158620E+04	   3.967904E+05	   5.310309E+04	   6.184737E+04	  -1.937531E+03	  -6.198471E+04	   5.418828E+04	   3.178470E+05	   4.522273E+04	   5.282005E+04	  -1.184294E+03	  -4.657387E+04	   3.700622E+04	   2.327825E+05	   3.792448E+04	   4.448977E+04	  -3.933673E+02	  -2.615086E+04	   1.876214E+04	   1.270276E+05	   3.547134E+04	   4.198509E+04	   7.853882E+02	  -6.945273E+03	   4.525193E+03	   3.284551E+04	   1.821442E+04	   2.168017E+04	   7.771785E+02	   0.000000E+00	   0.000000E+00	   0.000000E+00	   0.000000E+00	   0.000000E+00	   0.000000E+00	   0.000000E+00	   0.000000E+00	   0.000000E+00	   0.000000E+00	   0.000000E+00	   0.000000E+00	   0.000000E+00	   0.000000E+00	   0.000000E+00	   0.000000E+00	   0.000000E+00	   0.000000E+00
    1.2000	  -2.944104E+00	   6.351254E+04	  -3.277232E+04	   4.750116E+06	   2.347273E+07	   2.470294E+07	  -3.767293E+05	  -8.287075E+04	   8.063463E+04	   4.351095E+05	   5.697384E+04	   6.626566E+04	  -2.356485E+03	  -7.609986E+04	   7.192312E+04	   3.972039E+05	   5.300556E+04	   6.171717E+04	  -1.985343E+03	  -6.219500E+04	   5.460334E+04	   3.191580E+05	   4.516147E+04	   5.273254E+04	  -1.232033E+03	  -4.709489E+04	   3.753984E+04	   2.354547E+05	   3.783157E+04	   4.436507E+04	  -4.409546E+02	  -2.743958E+04	   1.965276E+04	   1.331126E+05	   3.555663E+04	   4.207362E+04	   7.489014E+02	  -7.875208E+03	   5.110457E+03	   3.716677E+04	   1.836788E+04	   2.185674E+04	   7.649233E+02	   0.000000E+00	   0.000000E+00	   0.000000E+00	   0.000000E+00	   0.000000E+00	   0.000000E+00	   0.000000E+00	   0.000000E+00	   0.000000E+00	   0.000000E+00	   0.000000E+00	   0.000000E+00	   0.000000E+00	   0.000000E+00	   0.000000E+00	   0.000000E+00	   0.000000E+00	   0.000000E+00
    1.2500	  -2.880262E+00	   6.447950E+04	  -3.214386E+04	   4.801980E+06	   2.351491E+07	   2.471423E+07	  -4.000680E+05	  -8.279338E+04	   8.092638E+04	   4.350700E+05	   5.684814E+04	   6.610293E+04	  -2.402377E+03	  -7.610020E+04	   7.225171E+04	   3.975471E+05	   5.290455E+04	   6.158303E+04	  -2.032618E+03	  -6.238320E+04	   5.500871E+04	   3.203731E+05	   4.509802E+04	   5.264240E+04	  -1.279925E+03	  -4.757921E+04	   3.805554E+04	   2.379631E+05	   3.774664E+04	   4.424970E+04	  -4.887271E+02	  -2.873510E+04	   2.054611E+04	   1.392158E+05	   3.516906E+04	   4.159541E+04	   6.801611E+02	  -8.835587E+03	   5.710758E+03	   4.161360E+04	   1.803995E+04	   2.145654E+04	   7.203927E+02	   0.000000E+00	   0.000000E+00	   0.000000E+00	   0.000000E+00	   0.000000E+00	   0.000000E+00	   0.000000E+00	   0.000000E+00	   0.000000E+00	   0.000000E+00	   0.000000E+00	   0.000000E+00	   0.000000E+00	   0.000000E+00	   0.000000E+00	   0.000000E+00	   0.000000E+00	   0.000000E+00
    1.3000	  -2.815711E+00	   6.539998E+04	  -3.142993E+04	   4.853010E+06	   2.354805E+07	   2.471512E+07	  -4.241633E+05	  -8.270407E+04	   8.120932E+04	   4.349702E+05	   5.671889E+04	   6.593638E+04	  -2.447162E+03	  -7.608568E+04	   7.257176E+04	   3.978215E+05	   5.280015E+04	   6.144513E+04	  -2.079236E+03	  -6.254970E+04	   5.540445E+04	   3.214941E+05	   4.503231E+04	   5.254958E+04	  -1.327891E+03	  -4.802812E+04	   3.855426E+04	   2.403143E+05	   3.766796E+04	   4.414161E+04	  -5.366955E+02	  -3.003529E+04	   2.144081E+04	   1.453268E+05	   3.427513E+04	   4.050969E+04	   5.749329E+02	  -9.823220E+03	   6.323895E+03	   4.617027E+04	   1.719877E+04	   2.044071E+04	   6.393932E+02	   0.000000E+00	   0.000000E+00	   0.000000E+00	   0.000000E+00	   0.000000E+00	   0.000000E+00	   0.000000E+00	   0.000000E+00	   0.000000E+00	   0.000000E+00	   0.000000E+00	   0.000000E+00	   0.000000E+00	   0.000000E+00	   0.000000E+00	   0.000000E+00	   0.000000E+00	   0.000000E+00
    1.3500	  -2.750463E+00	   6.626716E+04	  -3.062635E+04	   4.903172E+06	   2.357212E+07	   2.470558E+07	  -4.490059E+05	  -8.260325E+04	   8.148329E+04	   4.348118E+05	   5.658625E+04	   6.576623E+04	  -2.490739E+03	  -7.605673E+04	   7.288313E+04	   3.980284E+05	   5.269250E+04	   6.130365E+04	  -2.125108E+03	  -6.269490E+04	   5.579058E+04	   3.225229E+05	   4.496430E+04	   5.245404E+04	  -1.375861E+03	  -4.844279E+04	   3.903681E+04	   2.425146E+05	   3.759411E+04	   4.403914E+04	  -5.848610E+02	  -3.131554E+04	   2.232288E+04	   1.513342E+05	   3.295150E+04	   3.890775E+04	   4.366773E+02	  -1.083561E+04	   6.948163E+03	   5.082447E+04	   1.604485E+04	   1.904912E+04	   5.341882E+02	  -2.307101E+01	   1.299700E+01	   1.044753E+02	   1.225448E+02	   1.470087E+02	   8.772801E+00	   0.000000E+00	   0.000000E+00	   0.000000E+00	   0.000000E+00	   0.000000E+00	   0.000000E+00	   0.000000E+00	   0.000000E+00	   0.000000E+00	   0.000000E+00	   0.000000E+00	   0.000000E+00
    1.4000	  -2.684538E+00	   6.708160E+04	  -2.972892E+04	   4.952408E+06	   2.358713E+07	   2.468568E+07	  -4.745628E+05	  -8.249152E+04	   8.174801E+04	   4.345965E+05	   5.645040E+04	   6.559274E+04	  -2.532968E+03	  -7.601386E+04	   7.318564E+04	   3.981695E+05	   5.258175E+04	   6.115879E+04	  -2.170111E+03	  -6.281928E+04	   5.616715E+04	   3.234616E+05	   4.489397E+04	   5.235581E+04	  -1.423750E+03	  -4.882433E+04	   3.950392E+04	   2.445699E+05	   3.752396E+04	   4.394098E+04	  -6.332064E+02	  -3.237041E+04	   2.307840E+04	   1.563130E+05	   3.220091E+04	   3.799270E+04	   3.377411E+02	  -1.186914E+04	   7.582009E+03	   5.556092E+04	   1.657477E+04	   1.967765E+04	   5.499222E+02	  -2.718872E+02	   1.520078E+02	   1.227429E+03	   1.360400E+03	   1.632531E+03	   9.909784E+01	   0.000000E+00	   0.000000E+00	   0.000000E+00	   0.000000E+00	   0.000000E+00	   0.000000E+00	   0.000000E+00	   0.000000E+00	   0.000000E+00	   0.000000E+00	   0.000000E+00	   0.000000E+00