
Predictions were generated on 20-Nov-2019 at 10:08:49 using OpenFAST, compiled as a 64-bit application using double precision at commit -128-NOTFOUND
 linked with  NWTC Subroutine Library; ElastoDyn; InflowWind; AeroDyn; ServoDyn

Description from the FAST input file: FAST Certification Test #08: AOC 15/50 with many DOFs with fixed yaw error and steady wind. Many parameters are pure fiction.

Time      	Wind1VelX 	Wind1VelY 	Wind1VelZ 	LSSGagPxa 	TipDxb1   	TipDxb2   	TipDyb1   	TipDyb2   	RollDefl1 	RollDefl2 	PtchDefl1 	PtchDefl2 	Spn1ALxb1 	Spn1ALyb1 	HSShftV   	TTDspRoll 	TTDspPtch 	YawBrRVxp 	YawBrRVyp 	YawBrRAxp 	YawBrRAyp 	RootFxb1  	RootFyb1  	Spn2MLxb1 	Spn2MLyb1 	LSShftFya 	LSShftFza 	YawBrFxn  	YawBrFyn  	RtSpeed   	RtSkew    	B1N1Theta 	B1N2Theta 	B1N3Theta 	B1N4Theta 	B1N1AxInd 	B1N2AxInd 	B1N3AxInd 	B1N4AxInd 	B1N1Alpha 	B1N2Alpha 	B1N3Alpha 	B1N4Alpha 	B1N1Vrel  	B1N2Vrel  	B1N3Vrel  	B1N4Vrel  	B1N1Cl    	B1N2Cl    	B1N3Cl    	B1N4Cl    	B1N1Cd    	B1N2Cd    	B1N3Cd    	B1N4Cd    	B1N1Cm    	B1N2Cm    	B1N3Cm    	B1N4Cm    
(s)       	(m/s)     	(m/s)     	(m/s)     	(deg)     	(m)       	(m)       	(m)       	(m)       	(deg)     	(deg)     	(deg)     	(deg)     	(m/s^2)   	(m/s^2)   	(rpm)     	(deg)     	(deg)     	(deg/s)   	(deg/s)   	(deg/s^2) 	(deg/s^2) 	(kN)      	(kN)      	(kN-m)    	(kN-m)    	(kN)      	(kN)      	(kN)      	(kN)      	(rpm)     	(deg)     	(deg)     	(deg)     	(deg)     	(deg)     	(-)       	(-)       	(-)       	(-)       	(deg)     	(deg)     	(deg)     	(deg)     	(m/s)     	(m/s)     	(m/s)     	(m/s)     	(-)       	(-)       	(-)       	(-)       	(-)       	(-)       	(-)       	(-)       	(-)       	(-)       	(-)       	(-)       
   10.0000	 9.526E+00	-5.500E+00	 0.000E+00	 2.484E+02	 1.660E-03	-1.383E-02	 2.389E-03	-2.427E-03	-3.737E-02	 3.164E-02	-1.142E-01	-3.645E-01	 6.041E+00	 6.400E-01	 1.812E+03	 3.730E-02	 1.006E-01	-8.247E-03	-3.353E-02	-6.108E-01	-1.447E+00	 1.911E-01	 8.843E-01	-3.319E-01	 6.361E-02	 6.079E+00	 2.416E+00	 6.341E+00	-1.081E-01	 6.414E+01	 1.499E+01	 6.140E+00	 5.390E+00	 3.990E+00	 2.590E+00	 8.338E-02	 2.973E-01	 2.149E-01	 2.099E-01	 2.874E+01	 1.170E+01	 9.850E+00	 8.239E+00	 1.731E+01	 2.573E+01	 3.519E+01	 4.485E+01	 1.176E+00	 1.606E+00	 1.240E+00	 1.078E+00	 4.345E-01	 6.170E-02	 4.301E-02	 3.900E-02	 0.000E+00	 0.000E+00	 0.000E+00	 0.000E+00
   10.0500	 9.526E+00	-5.500E+00	 0.000E+00	 2.676E+02	-1.667E-03	-1.273E-02	 2.831E-03	-4.547E-03	-4.379E-02	 6.181E-02	-1.870E-01	-3.290E-01	 6.082E+00	 7.263E-01	 1.812E+03	 3.635E-02	 9.791E-02	-2.474E-02	-5.612E-02	-5.885E-02	 6.968E-01	 1.633E-01	 9.623E-01	-3.740E-01	-8.065E-02	 6.461E+00	 1.982E-01	 6.065E+00	-1.145E-01	 6.414E+01	 1.497E+01	 6.140E+00	 5.390E+00	 3.990E+00	 2.590E+00	 7.176E-02	 1.610E-01	 1.857E-01	 1.878E-01	 3.119E+01	 1.593E+01	 1.094E+01	 9.021E+00	 1.665E+01	 2.509E+01	 3.439E+01	 4.403E+01	 1.258E+00	 1.916E+00	 1.227E+00	 1.067E+00	 5.482E-01	 1.816E-01	 5.460E-02	 4.713E-02	 0.000E+00	 0.000E+00	 0.000E+00	 0.000E+00
   10.1000	 9.526E+00	-5.500E+00	 0.000E+00	 2.869E+02	-4.862E-03	-9.859E-03	 2.998E-03	-6.213E-03	-4.541E-02	 8.518E-02	-2.212E-01	-2.744E-01	 6.300E+00	 6.749E-01	 1.812E+03	 3.479E-02	 9.488E-02	-4.217E-02	-9.220E-02	-2.835E-01	-1.396E+00	-1.532E-02	 9.440E-01	-3.691E-01	-1.766E-01	 6.276E+00	-1.952E+00	 5.829E+00	-6.833E-02	 6.414E+01	 1.499E+01	 6.140E+00	 5.390E+00	 3.990E+00	 2.590E+00	 6.203E-02	 1.231E-01	 1.663E-01	 1.764E-01	 3.373E+01	 1.790E+01	 1.187E+01	 9.585E+00	 1.598E+01	 2.430E+01	 3.354E+01	 4.316E+01	 1.306E+00	 1.926E+00	 1.270E+00	 1.029E+00	 6.894E-01	 2.806E-01	 8.192E-02	 5.597E-02	 0.000E+00	 0.000E+00	 0.000E+00	 0.000E+00
   10.1500	 9.526E+00	-5.500E+00	 0.000E+00	 3.061E+02	-5.769E-03	-9.277E-03	 2.101E-03	-7.216E-03	-3.258E-02	 9.884E-02	-2.300E-01	-2.801E-01	 6.468E+00	 7.317E-01	 1.812E+03	 3.287E-02	 9.065E-02	-3.437E-02	-6.640E-02	-3.417E-01	-7.092E-01	-9.013E-02	 7.428E-01	-2.245E-01	-1.981E-01	 5.273E+00	-3.934E+00	 5.536E+00	-6.002E-02	 6.414E+01	 1.498E+01	 6.140E+00	 5.390E+00	 3.990E+00	 2.590E+00	 5.469E-02	 1.121E-01	 1.542E-01	 1.720E-01	 3.610E+01	 1.912E+01	 1.264E+01	 9.998E+00	 1.536E+01	 2.355E+01	 3.274E+01	 4.233E+01	 1.183E+00	 1.723E+00	 1.247E+00	 1.038E+00	 7.311E-01	 3.948E-01	 1.112E-01	 6.141E-02	 0.000E+00	 0.000E+00	 0.000E+00	 0.000E+00
   10.2000	 9.526E+00	-5.500E+00	 0.000E+00	 3.254E+02	-6.544E-03	-1.083E-02	 1.244E-03	-7.893E-03	-1.999E-02	 1.083E-01	-2.239E-01	-3.142E-01	 6.470E+00	 7.632E-01	 1.812E+03	 3.105E-02	 8.646E-02	-2.407E-02	-5.741E-02	 6.412E-01	 2.272E+00	-2.104E-01	 4.705E-01	-1.101E-01	-1.960E-01	 3.798E+00	-5.423E+00	 5.143E+00	 2.354E-02	 6.414E+01	 1.502E+01	 6.140E+00	 5.390E+00	 3.990E+00	 2.590E+00	 4.983E-02	 1.062E-01	 1.491E-01	 1.725E-01	 3.794E+01	 1.998E+01	 1.314E+01	 1.028E+01	 1.486E+01	 2.293E+01	 3.208E+01	 4.165E+01	 1.133E+00	 1.173E+00	 1.124E+00	 1.013E+00	 7.657E-01	 2.779E-01	 9.866E-02	 6.483E-02	 0.000E+00	 0.000E+00	 0.000E+00	 0.000E+00
   10.2500	 9.526E+00	-5.500E+00	 0.000E+00	 3.446E+02	-1.119E-02	-1.167E-02	-3.979E-04	-7.407E-03	 3.137E-03	 1.010E-01	-3.123E-01	-3.482E-01	 6.540E+00	 7.543E-01	 1.812E+03	 2.966E-02	 8.382E-02	-3.315E-02	-5.826E-02	 5.019E-01	 1.630E+00	-3.649E-01	 3.626E-02	 1.487E-01	-3.475E-01	 1.763E+00	-6.257E+00	 5.218E+00	 5.961E-02	 6.414E+01	 1.500E+01	 6.140E+00	 5.390E+00	 3.990E+00	 2.590E+00	 4.771E-02	 1.056E-01	 1.518E-01	 1.798E-01	 3.896E+01	 2.033E+01	 1.325E+01	 1.029E+01	 1.453E+01	 2.253E+01	 3.166E+01	 4.122E+01	 1.103E+00	 1.033E+00	 1.121E+00	 1.003E+00	 7.820E-01	 2.378E-01	 9.833E-02	 6.333E-02	 0.000E+00	 0.000E+00	 0.000E+00	 0.000E+00
   10.3000	 9.526E+00	-5.500E+00	 0.000E+00	 3.852E+00	-1.545E-02	-9.803E-03	-1.905E-03	-6.917E-03	 2.455E-02	 9.401E-02	-3.863E-01	-3.150E-01	 6.565E+00	 7.162E-01	 1.812E+03	 2.890E-02	 8.361E-02	-4.009E-03	 2.318E-02	 9.365E-02	-1.961E-01	-5.151E-01	-4.008E-01	 3.689E-01	-4.839E-01	-3.839E-01	-6.520E+00	 5.336E+00	 9.209E-02	 6.414E+01	 1.502E+01	 6.140E+00	 5.390E+00	 3.990E+00	 2.590E+00	 4.858E-02	 1.105E-01	 1.629E-01	 1.954E-01	 3.891E+01	 2.007E+01	 1.290E+01	 9.929E+00	 1.438E+01	 2.237E+01	 3.150E+01	 4.105E+01	 1.078E+00	 9.875E-01	 1.066E+00	 9.850E-01	 7.750E-01	 2.257E-01	 8.864E-02	 5.684E-02	 0.000E+00	 0.000E+00	 0.000E+00	 0.000E+00
   10.3500	 9.526E+00	-5.500E+00	 0.000E+00	 2.309E+01	-1.466E-02	-8.017E-03	-3.854E-03	-5.488E-03	 5.213E-02	 7.401E-02	-3.637E-01	-2.771E-01	 6.593E+00	 6.808E-01	 1.812E+03	 2.897E-02	 8.494E-02	 1.127E-02	 4.703E-02	 6.027E-01	 1.673E+00	-5.432E-01	-8.644E-01	 6.185E-01	-4.332E-01	-2.501E+00	-5.923E+00	 5.276E+00	 1.045E-01	 6.414E+01	 1.501E+01	 6.140E+00	 5.390E+00	 3.990E+00	 2.590E+00	 5.253E-02	 1.209E-01	 1.817E-01	 2.183E-01	 3.779E+01	 1.926E+01	 1.218E+01	 9.280E+00	 1.444E+01	 2.250E+01	 3.165E+01	 4.122E+01	 1.043E+00	 9.359E-01	 1.045E+00	 9.717E-01	 7.194E-01	 1.892E-01	 7.525E-02	 4.707E-02	 0.000E+00	 0.000E+00	 0.000E+00	 0.000E+00
   10.4000	 9.526E+00	-5.500E+00	 0.000E+00	 4.234E+01	-1.075E-02	-8.529E-03	-5.847E-03	-3.795E-03	 7.998E-02	 5.015E-02	-2.939E-01	-2.889E-01	 6.312E+00	 7.100E-01	 1.812E+03	 3.016E-02	 8.905E-02	 2.790E-02	 8.325E-02	-1.727E-01	-1.578E+00	-4.317E-01	-1.288E+00	 8.454E-01	-2.920E-01	-4.428E+00	-4.851E+00	 5.502E+00	 8.681E-02	 6.414E+01	 1.502E+01	 6.140E+00	 5.390E+00	 3.990E+00	 2.590E+00	 5.954E-02	 1.366E-01	 2.075E-01	 2.444E-01	 3.578E+01	 1.802E+01	 1.120E+01	 8.552E+00	 1.472E+01	 2.289E+01	 3.208E+01	 4.167E+01	 9.900E-01	 8.996E-01	 1.036E+00	 9.655E-01	 5.947E-01	 1.644E-01	 5.868E-02	 3.675E-02	 0.000E+00	 0.000E+00	 0.000E+00	 0.000E+00
   10.4500	 9.526E+00	-5.500E+00	 0.000E+00	 6.158E+01	-8.335E-03	-9.683E-03	-6.974E-03	-1.765E-03	 9.566E-02	 2.286E-02	-2.532E-01	-2.634E-01	 6.331E+00	 6.614E-01	 1.812E+03	 3.184E-02	 9.273E-02	 4.715E-02	 9.868E-02	 3.836E-01	 1.151E+00	-3.760E-01	-1.566E+00	 9.534E-01	-2.225E-01	-5.771E+00	-3.088E+00	 5.529E+00	 2.996E-02	 6.414E+01	 1.499E+01	 6.140E+00	 5.390E+00	 3.990E+00	 2.590E+00	 6.930E-02	 1.579E-01	 2.399E-01	 2.713E-01	 3.323E+01	 1.649E+01	 1.005E+01	 7.827E+00	 1.519E+01	 2.351E+01	 3.274E+01	 4.238E+01	 9.462E-01	 8.610E-01	 1.036E+00	 9.637E-01	 5.134E-01	 1.387E-01	 3.948E-02	 2.642E-02	 0.000E+00	 0.000E+00	 0.000E+00	 0.000E+00
   10.5000	 9.526E+00	-5.500E+00	 0.000E+00	 8.082E+01	-9.378E-03	-9.626E-03	-7.941E-03	 2.710E-05	 1.090E-01	-3.506E-03	-2.857E-01	-3.079E-01	 6.286E+00	 6.993E-01	 1.812E+03	 3.394E-02	 9.638E-02	 4.064E-02	 4.833E-02	 5.657E-01	 1.127E+00	-3.968E-01	-1.768E+00	 1.089E+00	-2.731E-01	-6.562E+00	-1.053E+00	 5.770E+00	-4.358E-03	 6.414E+01	 1.502E+01	 6.140E+00	 5.390E+00	 3.990E+00	 2.590E+00	 8.138E-02	 2.823E-01	 2.777E-01	 2.997E-01	 3.053E+01	 1.244E+01	 8.863E+00	 7.079E+00	 1.581E+01	 2.415E+01	 3.354E+01	 4.322E+01	 8.927E-01	 7.631E-01	 1.047E+00	 9.618E-01	 4.262E-01	 6.328E-02	 2.023E-02	 1.578E-02	 0.000E+00	 0.000E+00	 0.000E+00	 0.000E+00
   10.5500	 9.526E+00	-5.500E+00	 0.000E+00	 1.001E+02	-1.068E-02	-3.685E-03	-7.558E-03	 8.342E-04	 1.031E-01	-1.612E-02	-3.298E-01	-2.414E-01	 6.171E+00	 7.362E-01	 1.812E+03	 3.590E-02	 9.908E-02	 2.021E-02	 1.481E-02	-8.147E-01	-1.920E+00	-3.623E-01	-1.744E+00	 1.022E+00	-3.370E-01	-6.454E+00	 1.121E+00	 6.230E+00	-5.778E-02	 6.414E+01	 1.499E+01	 6.140E+00	 5.390E+00	 3.990E+00	 2.590E+00	 9.463E-02	 3.766E-01	 3.032E-01	 3.280E-01	 2.801E+01	 9.451E+00	 7.931E+00	 6.340E+00	 1.651E+01	 2.486E+01	 3.439E+01	 4.407E+01	 8.335E-01	 1.013E+00	 1.071E+00	 9.551E-01	 3.449E-01	 1.469E-02	 7.265E-03	 6.476E-03	 0.000E+00	 0.000E+00	 0.000E+00	 0.000E+00
   10.6000	 9.526E+00	-5.500E+00	 0.000E+00	 1.193E+02	-9.543E-03	 1.644E-03	-7.166E-03	 2.248E-03	 9.748E-02	-3.515E-02	-3.109E-01	-1.056E-01	 6.150E+00	 7.122E-01	 1.812E+03	 3.668E-02	 9.977E-02	 1.308E-02	 1.911E-02	-4.601E-01	-9.946E-01	-3.129E-01	-1.612E+00	 9.683E-01	-3.021E-01	-5.725E+00	 3.228E+00	 6.273E+00	-9.979E-02	 6.414E+01	 1.500E+01	 6.140E+00	 5.390E+00	 3.990E+00	 2.590E+00	 1.081E-01	 3.907E-01	 3.131E-01	 3.426E-01	 2.589E+01	 8.584E+00	 7.368E+00	 5.849E+00	 1.720E+01	 2.564E+01	 3.519E+01	 4.487E+01	 7.859E-01	 1.244E+00	 1.052E+00	 9.434E-01	 2.811E-01	-7.077E-03	 6.543E-03	 2.945E-03	 0.000E+00	 0.000E+00	 0.000E+00	 0.000E+00
   10.6500	 9.526E+00	-5.500E+00	 0.000E+00	 1.385E+02	-7.799E-03	 7.975E-04	-5.919E-03	 2.488E-03	 8.004E-02	-3.779E-02	-2.737E-01	-9.339E-02	 6.169E+00	 6.789E-01	 1.812E+03	 3.664E-02	 9.902E-02	-1.223E-02	-4.104E-02	-2.910E-01	-4.327E-01	-2.722E-01	-1.299E+00	 7.897E-01	-2.452E-01	-4.280E+00	 4.854E+00	 6.165E+00	-9.446E-02	 6.414E+01	 1.498E+01	 6.140E+00	 5.390E+00	 3.990E+00	 2.590E+00	 1.197E-01	 3.983E-01	 3.201E-01	 3.426E-01	 2.435E+01	 8.050E+00	 7.001E+00	 5.666E+00	 1.780E+01	 2.629E+01	 3.585E+01	 4.552E+01	 7.739E-01	 1.285E+00	 1.031E+00	 9.205E-01	 2.586E-01	-4.076E-03	 6.870E-03	 5.072E-03	 0.000E+00	 0.000E+00	 0.000E+00	 0.000E+00
   10.7000	 9.526E+00	-5.500E+00	 0.000E+00	 1.578E+02	-8.215E-03	-3.717E-03	-4.161E-03	 3.090E-03	 5.525E-02	-4.680E-02	-2.846E-01	-2.023E-01	 6.244E+00	 7.053E-01	 1.812E+03	 3.582E-02	 9.720E-02	-2.206E-02	-3.555E-02	-5.111E-01	-1.176E+00	-2.910E-01	-8.862E-01	 5.655E-01	-2.650E-01	-2.411E+00	 6.094E+00	 5.999E+00	-1.020E-01	 6.414E+01	 1.499E+01	 6.140E+00	 5.390E+00	 3.990E+00	 2.590E+00	 1.258E-01	 3.966E-01	 3.154E-01	 3.283E-01	 2.351E+01	 7.900E+00	 6.954E+00	 5.760E+00	 1.824E+01	 2.676E+01	 3.632E+01	 4.598E+01	 8.085E-01	 1.279E+00	 1.038E+00	 9.233E-01	 2.514E-01	 6.100E-03	 8.356E-03	 7.186E-03	 0.000E+00	 0.000E+00	 0.000E+00	 0.000E+00
   10.7500	 9.526E+00	-5.500E+00	 0.000E+00	 1.770E+02	-9.118E-03	-6.025E-03	-2.389E-03	 2.629E-03	 3.112E-02	-4.077E-02	-2.721E-01	-2.649E-01	 6.036E+00	 7.320E-01	 1.812E+03	 3.423E-02	 9.371E-02	-3.124E-02	-7.453E-02	 3.872E-01	 1.285E+00	-2.676E-01	-4.471E-01	 3.624E-01	-2.917E-01	-2.975E-01	 6.514E+00	 5.664E+00	-6.177E-02	 6.414E+01	 1.496E+01	 6.140E+00	 5.390E+00	 3.990E+00	 2.590E+00	 1.248E-01	 3.815E-01	 2.968E-01	 3.119E-01	 2.345E+01	 8.258E+00	 7.314E+00	 5.856E+00	 1.846E+01	 2.701E+01	 3.654E+01	 4.610E+01	 1.703E+00	 1.091E+00	 9.012E-01	 8.508E-01	 6.390E-01	 1.449E-02	 1.107E-02	 8.934E-03	 0.000E+00	 0.000E+00	 0.000E+00	 0.000E+00
   10.8000	 9.526E+00	-5.500E+00	 0.000E+00	 1.963E+02	-1.087E-02	-5.743E-03	-1.468E-04	 1.630E-03	-2.477E-03	-2.591E-02	-3.868E-01	-2.276E-01	 6.260E+00	 6.966E-01	 1.812E+03	 3.263E-02	 9.019E-02	-3.762E-02	-9.242E-02	 2.791E-01	-4.514E-03	-1.261E-01	 4.269E-02	 6.037E-02	-3.893E-01	 1.903E+00	 6.348E+00	 5.538E+00	-3.132E-02	 6.414E+01	 1.500E+01	 6.140E+00	 5.390E+00	 3.990E+00	 2.590E+00	 1.178E-01	 3.606E-01	 2.769E-01	 2.867E-01	 2.406E+01	 8.862E+00	 7.728E+00	 6.355E+00	 1.844E+01	 2.698E+01	 3.651E+01	 4.615E+01	 9.304E-01	 1.358E+00	 1.095E+00	 9.706E-01	 2.902E-01	 3.326E-02	 1.922E-02	 1.058E-02	 0.000E+00	 0.000E+00	 0.000E+00	 0.000E+00
   10.8500	 9.526E+00	-5.500E+00	 0.000E+00	 2.155E+02	-5.097E-03	-8.173E-03	 4.787E-04	 4.599E-04	-1.094E-02	-8.576E-03	-2.618E-01	-2.405E-01	 6.251E+00	 7.274E-01	 1.812E+03	 3.128E-02	 8.703E-02	-3.051E-02	-5.930E-02	-7.181E-01	-1.437E+00	 2.341E-02	 3.690E-01	-3.574E-02	-1.729E-01	 3.756E+00	 5.381E+00	 5.488E+00	 2.229E-02	 6.414E+01	 1.501E+01	 6.140E+00	 5.390E+00	 3.990E+00	 2.590E+00	 1.063E-01	 3.374E-01	 2.551E-01	 2.619E-01	 2.530E+01	 9.679E+00	 8.269E+00	 6.825E+00	 1.818E+01	 2.669E+01	 3.619E+01	 4.584E+01	 9.798E-01	 1.426E+00	 1.122E+00	 1.011E+00	 3.160E-01	 3.657E-02	 1.809E-02	 1.553E-02	 0.000E+00	 0.000E+00	 0.000E+00	 0.000E+00
   10.9000	 9.526E+00	-5.500E+00	 0.000E+00	 2.348E+02	 1.200E-03	-1.353E-02	 1.983E-03	-1.296E-03	-3.050E-02	 1.614E-02	-7.816E-02	-3.434E-01	 6.571E+00	 7.603E-01	 1.812E+03	 2.977E-02	 8.456E-02	-1.613E-02	-4.637E-03	 4.996E-01	 1.429E+00	-6.064E-03	 7.452E-01	-2.866E-01	 8.395E-02	 5.321E+00	 3.793E+00	 5.266E+00	 5.483E-02	 6.414E+01	 1.501E+01	 6.140E+00	 5.390E+00	 3.990E+00	 2.590E+00	 9.242E-02	 3.141E-01	 2.333E-01	 2.321E-01	 2.715E+01	 1.077E+01	 9.085E+00	 7.593E+00	 1.772E+01	 2.618E+01	 3.566E+01	 4.531E+01	 1.102E+00	 1.509E+00	 1.196E+00	 1.049E+00	 3.749E-01	 4.546E-02	 3.244E-02	 2.339E-02	 0.000E+00	 0.000E+00	 0.000E+00	 0.000E+00
   10.9500	 9.526E+00	-5.500E+00	 0.000E+00	 2.540E+02	 5.425E-04	-1.606E-02	 2.425E-03	-2.760E-03	-3.698E-02	 3.640E-02	-1.015E-01	-4.048E-01	 6.581E+00	 7.805E-01	 1.812E+03	 2.922E-02	 8.475E-02	-6.549E-03	 8.494E-03	 3.265E-01	 5.264E-01	 1.905E-02	 9.024E-01	-3.188E-01	 4.136E-02	 6.202E+00	 1.850E+00	 5.315E+00	 1.034E-01	 6.414E+01	 1.501E+01	 6.140E+00	 5.390E+00	 3.990E+00	 2.590E+00	 8.003E-02	 2.685E-01	 2.053E-01	 2.023E-01	 2.939E+01	 1.260E+01	 1.018E+01	 8.484E+00	 1.712E+01	 2.555E+01	 3.497E+01	 4.462E+01	 1.200E+00	 1.628E+00	 1.241E+00	 1.048E+00	 4.653E-01	 7.791E-02	 4.738E-02	 3.935E-02	 0.000E+00	 0.000E+00	 0.000E+00	 0.000E+00
   11.0000	 9.526E+00	-5.500E+00	 0.000E+00	 2.732E+02	-4.494E-03	-1.296E-02	 3.088E-03	-5.036E-03	-4.738E-02	 6.853E-02	-2.410E-01	-3.389E-01	 6.472E+00	 7.587E-01	 1.812E+03	 2.946E-02	 8.655E-02	 1.868E-02	 7.463E-02	 4.274E-01	 1.175E+00	 5.570E-02	 9.765E-01	-3.916E-01	-1.847E-01	 6.472E+00	-3.925E-01	 5.346E+00	 8.269E-02	 6.414E+01	 1.501E+01	 6.140E+00	 5.390E+00	 3.990E+00	 2.590E+00	 6.898E-02	 1.415E-01	 1.791E-01	 1.841E-01	 3.186E+01	 1.670E+01	 1.123E+01	 9.181E+00	 1.643E+01	 2.486E+01	 3.414E+01	 4.377E+01	 1.269E+00	 1.952E+00	 1.255E+00	 1.069E+00	 5.880E-01	 2.066E-01	 6.256E-02	 5.208E-02	 0.000E+00	 0.000E+00	 0.000E+00	 0.000E+00
   11.0500	 9.526E+00	-5.500E+00	 0.000E+00	 2.925E+02	-6.940E-03	-8.865E-03	 2.928E-03	-6.493E-03	-4.488E-02	 8.923E-02	-2.787E-01	-2.514E-01	 6.335E+00	 7.161E-01	 1.812E+03	 3.050E-02	 8.974E-02	 2.473E-02	 4.938E-02	 6.246E-01	 1.015E+00	-1.766E-02	 9.040E-01	-3.429E-01	-2.591E-01	 6.048E+00	-2.546E+00	 5.323E+00	 6.456E-02	 6.414E+01	 1.501E+01	 6.140E+00	 5.390E+00	 3.990E+00	 2.590E+00	 6.003E-02	 1.206E-01	 1.642E-01	 1.762E-01	 3.433E+01	 1.817E+01	 1.201E+01	 9.637E+00	 1.576E+01	 2.405E+01	 3.328E+01	 4.290E+01	 1.302E+00	 1.884E+00	 1.265E+00	 1.018E+00	 7.303E-01	 3.116E-01	 9.028E-02	 5.490E-02	 0.000E+00	 0.000E+00	 0.000E+00	 0.000E+00
   11.1000	 9.526E+00	-5.500E+00	 0.000E+00	 3.117E+02	-6.183E-03	-8.745E-03	 1.860E-03	-7.555E-03	-2.901E-02	 1.035E-01	-2.305E-01	-2.761E-01	 6.360E+00	 6.644E-01	 1.812E+03	 3.235E-02	 9.358E-02	 3.493E-02	 6.072E-02	-4.945E-01	-2.513E+00	-1.277E-01	 6.782E-01	-1.876E-01	-2.020E-01	 4.911E+00	-4.447E+00	 5.836E+00	 1.089E-02	 6.414E+01	 1.500E+01	 6.140E+00	 5.390E+00	 3.990E+00	 2.590E+00	 5.344E-02	 1.112E-01	 1.546E-01	 1.739E-01	 3.657E+01	 1.927E+01	 1.267E+01	 9.987E+00	 1.517E+01	 2.333E+01	 3.251E+01	 4.209E+01	 1.139E+00	 1.465E+00	 1.169E+00	 1.036E+00	 7.191E-01	 3.377E-01	 9.708E-02	 6.247E-02	 0.000E+00	 0.000E+00	 0.000E+00	 0.000E+00
   11.1500	 9.526E+00	-5.500E+00	 0.000E+00	 3.310E+02	-6.854E-03	-1.038E-02	 8.156E-04	-7.813E-03	-1.373E-02	 1.069E-01	-2.206E-01	-3.127E-01	 6.221E+00	 7.180E-01	 1.812E+03	 3.432E-02	 9.630E-02	 4.507E-02	 7.304E-02	-5.900E-01	-9.442E-01	-2.389E-01	 3.589E-01	-4.932E-02	-1.968E-01	 3.260E+00	-5.751E+00	 5.904E+00	-1.269E-02	 6.414E+01	 1.502E+01	 6.140E+00	 5.390E+00	 3.990E+00	 2.590E+00	 4.924E-02	 1.065E-01	 1.510E-01	 1.757E-01	 3.822E+01	 2.003E+01	 1.311E+01	 1.023E+01	 1.473E+01	 2.278E+01	 3.193E+01	 4.150E+01	 1.108E+00	 1.117E+00	 1.129E+00	 1.008E+00	 7.545E-01	 2.598E-01	 9.481E-02	 6.310E-02	 0.000E+00	 0.000E+00	 0.000E+00	 0.000E+00
   11.2000	 9.526E+00	-5.500E+00	 0.000E+00	 3.502E+02	-1.099E-02	-1.057E-02	-1.033E-03	-7.384E-03	 1.208E-02	 1.006E-01	-3.081E-01	-3.291E-01	 6.192E+00	 7.608E-01	 1.812E+03	 3.557E-02	 9.775E-02	 1.789E-02	 2.112E-02	 3.048E-01	 1.505E+00	-3.389E-01	-1.095E-01	 2.311E-01	-3.394E-01	 1.102E+00	-6.446E+00	 5.994E+00	-6.759E-02	 6.414E+01	 1.500E+01	 6.140E+00	 5.390E+00	 3.990E+00	 2.590E+00	 4.782E-02	 1.069E-01	 1.548E-01	 1.845E-01	 3.900E+01	 2.028E+01	 1.316E+01	 1.018E+01	 1.446E+01	 2.245E+01	 3.158E+01	 4.114E+01	 1.086E+00	 1.017E+00	 1.124E+00	 9.997E-01	 7.667E-01	 2.306E-01	 9.880E-02	 6.149E-02	 0.000E+00	 0.000E+00	 0.000E+00	 0.000E+00
   11.2500	 9.526E+00	-5.500E+00	 0.000E+00	 9.450E+00	-1.401E-02	-8.501E-03	-2.502E-03	-6.643E-03	 3.269E-02	 9.011E-02	-3.681E-01	-2.917E-01	 6.097E+00	 7.435E-01	 1.812E+03	 3.635E-02	 9.896E-02	 4.335E-03	-4.553E-03	-5.585E-01	-1.516E+00	-4.172E-01	-5.442E-01	 4.291E-01	-4.385E-01	-1.056E+00	-6.449E+00	 6.240E+00	-8.070E-02	 6.414E+01	 1.499E+01	 6.140E+00	 5.390E+00	 3.990E+00	 2.590E+00	 4.939E-02	 1.128E-01	 1.672E-01	 2.011E-01	 3.870E+01	 1.991E+01	 1.274E+01	 9.778E+00	 1.438E+01	 2.239E+01	 3.152E+01	 4.108E+01	 1.065E+00	 9.825E-01	 1.063E+00	 9.837E-01	 7.571E-01	 2.046E-01	 8.568E-02	 5.460E-02	 0.000E+00	 0.000E+00	 0.000E+00	 0.000E+00
   11.3000	 9.526E+00	-5.500E+00	 0.000E+00	 2.869E+01	-1.245E-02	-7.654E-03	-4.677E-03	-4.968E-03	 6.362E-02	 6.661E-02	-3.236E-01	-2.731E-01	 6.281E+00	 7.382E-01	 1.812E+03	 3.612E-02	 9.785E-02	-8.420E-03	-1.778E-02	-2.693E-02	 8.189E-01	-4.623E-01	-1.020E+00	 7.122E-01	-3.584E-01	-3.166E+00	-5.640E+00	 6.053E+00	-1.059E-01	 6.414E+01	 1.498E+01	 6.140E+00	 5.390E+00	 3.990E+00	 2.590E+00	 5.407E-02	 1.242E-01	 1.871E-01	 2.239E-01	 3.736E+01	 1.901E+01	 1.198E+01	 9.141E+00	 1.452E+01	 2.260E+01	 3.176E+01	 4.133E+01	 1.027E+00	 9.294E-01	 1.044E+00	 9.717E-01	 6.826E-01	 1.837E-01	 7.164E-02	 4.512E-02	 0.000E+00	 0.000E+00	 0.000E+00	 0.000E+00
   11.3500	 9.526E+00	-5.500E+00	 0.000E+00	 4.793E+01	-9.504E-03	-8.832E-03	-6.281E-03	-3.317E-03	 8.614E-02	 4.335E-02	-2.677E-01	-2.981E-01	 6.235E+00	 7.485E-01	 1.812E+03	 3.532E-02	 9.643E-02	-2.836E-02	-6.754E-02	-2.991E-01	-1.463E+00	-4.092E-01	-1.388E+00	 8.878E-01	-2.479E-01	-4.901E+00	-4.371E+00	 5.950E+00	-7.222E-02	 6.414E+01	 1.499E+01	 6.140E+00	 5.390E+00	 3.990E+00	 2.590E+00	 6.163E-02	 1.406E-01	 2.130E-01	 2.491E-01	 3.521E+01	 1.773E+01	 1.101E+01	 8.445E+00	 1.486E+01	 2.306E+01	 3.226E+01	 4.186E+01	 9.821E-01	 8.942E-01	 1.038E+00	 9.666E-01	 5.776E-01	 1.596E-01	 5.553E-02	 3.521E-02	 0.000E+00	 0.000E+00	 0.000E+00	 0.000E+00
   11.4000	 9.526E+00	-5.500E+00	 0.000E+00	 6.718E+01	-9.099E-03	-1.096E-02	-7.296E-03	-9.458E-04	 9.991E-02	 9.625E-03	-2.792E-01	-3.550E-01	 6.312E+00	 7.462E-01	 1.812E+03	 3.404E-02	 9.344E-02	-2.490E-02	-4.881E-02	-5.012E-01	-1.285E+00	-3.679E-01	-1.649E+00	 9.975E-01	-2.619E-01	-6.104E+00	-2.485E+00	 5.739E+00	-8.296E-02	 6.414E+01	 1.498E+01	 6.140E+00	 5.390E+00	 3.990E+00	 2.590E+00	 7.205E-02	 1.751E-01	 2.467E-01	 2.762E-01	 3.258E+01	 1.585E+01	 9.837E+00	 7.706E+00	 1.538E+01	 2.371E+01	 3.297E+01	 4.262E+01	 9.333E-01	 8.508E-01	 1.038E+00	 9.633E-01	 4.918E-01	 1.280E-01	 3.587E-02	 2.464E-02	 0.000E+00	 0.000E+00	 0.000E+00	 0.000E+00
   11.4500	 9.526E+00	-5.500E+00	 0.000E+00	 8.642E+01	-1.068E-02	-7.391E-03	-7.898E-03	 9.784E-05	 1.083E-01	-3.651E-03	-3.125E-01	-2.316E-01	 6.440E+00	 7.115E-01	 1.812E+03	 3.259E-02	 8.983E-02	-2.033E-02	-5.267E-02	 2.733E-01	 1.516E+00	-4.438E-01	-1.778E+00	 1.086E+00	-3.197E-01	-6.609E+00	-4.541E-01	 5.372E+00	-1.055E-02	 6.414E+01	 1.502E+01	 6.140E+00	 5.390E+00	 3.990E+00	 2.590E+00	 8.464E-02	 3.591E-01	 2.873E-01	 3.059E-01	 2.987E+01	 1.039E+01	 8.581E+00	 6.919E+00	 1.602E+01	 2.429E+01	 3.378E+01	 4.346E+01	 8.770E-01	 7.182E-01	 1.047E+00	 9.600E-01	 4.042E-01	 2.074E-02	 1.546E-02	 1.351E-02	 0.000E+00	 0.000E+00	 0.000E+00	 0.000E+00
   11.5000	 9.526E+00	-5.500E+00	 0.000E+00	 1.057E+02	-1.145E-02	-1.050E-03	-7.409E-03	 1.257E-03	 1.010E-01	-2.089E-02	-3.442E-01	-1.450E-01	 6.495E+00	 6.832E-01	 1.812E+03	 3.111E-02	 8.685E-02	-3.554E-02	-6.346E-02	 5.301E-01	 1.761E+00	-4.076E-01	-1.710E+00	 1.011E+00	-3.623E-01	-6.273E+00	 1.731E+00	 5.378E+00	 2.552E-02	 6.414E+01	 1.500E+01	 6.140E+00	 5.390E+00	 3.990E+00	 2.590E+00	 9.809E-02	 3.810E-01	 3.056E-01	 3.322E-01	 2.741E+01	 9.199E+00	 7.784E+00	 6.202E+00	 1.672E+01	 2.510E+01	 3.463E+01	 4.432E+01	 8.182E-01	 1.077E+00	 1.069E+00	 9.515E-01	 3.257E-01	 9.106E-03	 6.473E-03	 5.398E-03	 0.000E+00	 0.000E+00	 0.000E+00	 0.000E+00
   11.5500	 9.526E+00	-5.500E+00	 0.000E+00	 1.249E+02	-9.645E-03	 1.163E-03	-6.869E-03	 2.366E-03	 9.332E-02	-3.730E-02	-3.126E-01	-1.338E-01	 6.482E+00	 7.570E-01	 1.812E+03	 3.001E-02	 8.576E-02	-1.592E-02	-8.174E-03	 2.840E-02	-2.415E-01	-3.394E-01	-1.541E+00	 9.296E-01	-3.052E-01	-5.383E+00	 3.696E+00	 5.460E+00	 6.480E-02	 6.414E+01	 1.502E+01	 6.140E+00	 5.390E+00	 3.990E+00	 2.590E+00	 1.119E-01	 3.930E-01	 3.164E-01	 3.448E-01	 2.538E+01	 8.410E+00	 7.228E+00	 5.755E+00	 1.739E+01	 2.585E+01	 3.540E+01	 4.508E+01	 7.786E-01	 1.268E+00	 1.045E+00	 9.348E-01	 2.701E-01	-8.271E-03	 5.923E-03	 3.064E-03	 0.000E+00	 0.000E+00	 0.000E+00	 0.000E+00
   11.6000	 9.526E+00	-5.500E+00	 0.000E+00	 1.441E+02	-8.061E-03	-1.802E-03	-5.389E-03	 2.724E-03	 7.259E-02	-4.171E-02	-2.787E-01	-1.672E-01	 6.437E+00	 7.376E-01	 1.812E+03	 2.947E-02	 8.570E-02	-1.698E-03	 1.987E-02	 5.199E-01	 1.482E+00	-3.023E-01	-1.185E+00	 7.200E-01	-2.537E-01	-3.777E+00	 5.206E+00	 5.325E+00	 8.740E-02	 6.414E+01	 1.500E+01	 6.140E+00	 5.390E+00	 3.990E+00	 2.590E+00	 1.225E-01	 3.999E-01	 3.208E-01	 3.395E-01	 2.399E+01	 7.928E+00	 6.927E+00	 5.660E+00	 1.794E+01	 2.645E+01	 3.600E+01	 4.568E+01	 7.798E-01	 1.274E+00	 1.029E+00	 9.177E-01	 2.534E-01	-2.090E-03	 6.817E-03	 5.762E-03	 0.000E+00	 0.000E+00	 0.000E+00	 0.000E+00
   11.6500	 9.526E+00	-5.500E+00	 0.000E+00	 1.634E+02	-8.656E-03	-5.892E-03	-3.707E-03	 3.155E-03	 4.891E-02	-4.739E-02	-2.917E-01	-2.325E-01	 6.433E+00	 7.888E-01	 1.812E+03	 2.991E-02	 8.817E-02	 1.242E-02	 4.794E-02	-6.444E-02	-1.323E+00	-3.117E-01	-7.714E-01	 5.139E-01	-2.788E-01	-1.874E+00	 6.292E+00	 5.439E+00	 9.033E-02	 6.414E+01	 1.502E+01	 6.140E+00	 5.390E+00	 3.990E+00	 2.590E+00	 1.680E-01	 3.953E-01	 3.132E-01	 3.235E-01	 1.961E+01	 7.882E+00	 6.956E+00	 5.795E+00	 1.732E+01	 2.685E+01	 3.640E+01	 4.607E+01	 9.839E-01	 1.279E+00	 1.041E+00	 9.253E-01	 2.523E-01	 8.155E-03	 8.614E-03	 7.579E-03	 0.000E+00	 0.000E+00	 0.000E+00	 0.000E+00
   11.7000	 9.526E+00	-5.500E+00	 0.000E+00	 1.826E+02	-9.876E-03	-6.882E-03	-1.620E-03	 2.376E-03	 2.067E-02	-3.673E-02	-2.728E-01	-2.626E-01	 6.738E+00	 7.889E-01	 1.812E+03	 3.098E-02	 9.057E-02	 3.600E-02	 7.789E-02	 2.897E-01	 8.838E-01	-4.150E-01	-2.895E-01	 2.553E-01	-3.032E-01	 3.317E-01	 6.541E+00	 5.417E+00	 4.252E-02	 6.414E+01	 1.499E+01	 6.140E+00	 5.390E+00	 3.990E+00	 2.590E+00	 1.244E-01	 3.800E-01	 2.972E-01	 3.025E-01	 2.344E+01	 8.236E+00	 7.228E+00	 6.091E+00	 1.845E+01	 2.699E+01	 3.653E+01	 4.619E+01	 1.290E+00	 1.390E+00	 1.068E+00	 9.354E-01	 4.484E-01	 4.912E-02	 2.482E-02	 1.608E-02	 0.000E+00	 0.000E+00	 0.000E+00	 0.000E+00
   11.7500	 9.526E+00	-5.500E+00	 0.000E+00	 2.019E+02	-9.189E-03	-6.139E-03	 3.709E-05	 1.429E-03	-3.324E-03	-2.283E-02	-2.869E-01	-2.253E-01	 6.541E+00	 7.445E-01	 1.812E+03	 3.260E-02	 9.327E-02	 3.687E-02	 4.475E-02	 7.386E-01	 1.787E+00	-3.122E-01	 1.407E-01	 4.617E-02	-2.765E-01	 2.462E+00	 6.164E+00	 5.555E+00	 2.537E-02	 6.414E+01	 1.502E+01	 6.140E+00	 5.390E+00	 3.990E+00	 2.590E+00	 1.154E-01	 3.544E-01	 2.710E-01	 2.807E-01	 2.429E+01	 9.053E+00	 7.857E+00	 6.447E+00	 1.837E+01	 2.691E+01	 3.644E+01	 4.609E+01	 9.386E-01	 1.380E+00	 1.109E+00	 9.840E-01	 2.939E-01	 3.403E-02	 1.822E-02	 1.067E-02	 0.000E+00	 0.000E+00	 0.000E+00	 0.000E+00
   11.8000	 9.526E+00	-5.500E+00	 0.000E+00	 2.211E+02	-3.344E-03	-9.077E-03	 9.200E-04	-1.402E-04	-1.718E-02	-4.543E-04	-2.291E-01	-2.701E-01	 6.116E+00	 6.904E-01	 1.812E+03	 3.442E-02	 9.589E-02	 1.988E-02	 1.698E-02	-5.332E-01	-1.229E+00	 8.007E-02	 4.893E-01	-1.078E-01	-1.098E-01	 4.280E+00	 4.945E+00	 6.020E+00	-2.594E-02	 6.414E+01	 1.500E+01	 6.140E+00	 5.390E+00	 3.990E+00	 2.590E+00	 1.025E-01	 3.301E-01	 2.462E-01	 2.530E-01	 2.577E+01	 1.000E+01	 8.567E+00	 7.032E+00	 1.805E+01	 2.656E+01	 3.605E+01	 4.569E+01	 1.014E+00	 1.451E+00	 1.164E+00	 1.020E+00	 3.304E-01	 4.179E-02	 2.709E-02	 1.866E-02	 0.000E+00	 0.000E+00	 0.000E+00	 0.000E+00
   11.8500	 9.526E+00	-5.500E+00	 0.000E+00	 2.404E+02	 1.368E-03	-1.311E-02	 2.288E-03	-1.807E-03	-3.589E-02	 2.328E-02	-1.177E-01	-3.370E-01	 6.075E+00	 6.425E-01	 1.812E+03	 3.545E-02	 9.734E-02	 2.074E-02	 3.785E-02	-3.724E-01	-1.015E+00	 1.796E-01	 8.240E-01	-3.297E-01	 5.385E-02	 5.710E+00	 3.246E+00	 6.141E+00	-6.735E-02	 6.414E+01	 1.501E+01	 6.140E+00	 5.390E+00	 3.990E+00	 2.590E+00	 8.886E-02	 3.077E-01	 2.284E-01	 2.237E-01	 2.775E+01	 1.110E+01	 9.312E+00	 7.827E+00	 1.754E+01	 2.600E+01	 3.547E+01	 4.513E+01	 1.130E+00	 1.531E+00	 1.207E+00	 1.061E+00	 3.949E-01	 4.858E-02	 3.493E-02	 2.857E-02	 0.000E+00	 0.000E+00	 0.000E+00	 0.000E+00
   11.9000	 9.526E+00	-5.500E+00	 0.000E+00	 2.596E+02	 2.641E-04	-1.379E-02	 2.538E-03	-3.560E-03	-3.855E-02	 4.783E-02	-1.062E-01	-3.534E-01	 6.310E+00	 7.215E-01	 1.812E+03	 3.590E-02	 9.772E-02	-2.037E-04	-1.344E-02	-1.961E-01	-2.023E-01	 5.659E-02	 9.317E-01	-3.341E-01	 2.240E-02	 6.361E+00	 1.161E+00	 6.082E+00	-7.657E-02	 6.414E+01	 1.498E+01	 6.140E+00	 5.390E+00	 3.990E+00	 2.590E+00	 7.660E-02	 2.078E-01	 1.980E-01	 1.963E-01	 3.010E+01	 1.433E+01	 1.045E+01	 8.693E+00	 1.692E+01	 2.538E+01	 3.473E+01	 4.438E+01	 1.226E+00	 1.798E+00	 1.236E+00	 1.054E+00	 4.957E-01	 1.429E-01	 5.132E-02	 3.942E-02	 0.000E+00	 0.000E+00	 0.000E+00	 0.000E+00
   11.9500	 9.526E+00	-5.500E+00	 0.000E+00	 2.788E+02	-4.006E-03	-1.087E-02	 3.095E-03	-5.673E-03	-4.680E-02	 7.743E-02	-2.054E-01	-3.006E-01	 6.300E+00	 6.642E-01	 1.812E+03	 3.577E-02	 9.746E-02	-8.318E-03	-6.960E-03	-5.706E-01	-1.514E+00	-7.405E-04	 9.788E-01	-3.912E-01	-1.435E-01	 6.473E+00	-1.074E+00	 6.020E+00	-9.520E-02	 6.414E+01	 1.499E+01	 6.140E+00	 5.390E+00	 3.990E+00	 2.590E+00	 6.590E-02	 1.289E-01	 1.726E-01	 1.803E-01	 3.265E+01	 1.735E+01	 1.154E+01	 9.365E+00	 1.625E+01	 2.463E+01	 3.390E+01	 4.352E+01	 1.291E+00	 1.979E+00	 1.269E+00	 1.072E+00	 6.292E-01	 2.413E-01	 7.076E-02	 5.790E-02	 0.000E+00	 0.000E+00	 0.000E+00	 0.000E+00
   12.0000	 9.526E+00	-5.500E+00	 0.000E+00	 2.981E+02	-5.931E-03	-8.495E-03	 2.574E-03	-6.830E-03	-3.995E-02	 9.380E-02	-2.608E-01	-2.505E-01	 6.276E+00	 7.559E-01	 1.812E+03	 3.486E-02	 9.530E-02	-1.773E-02	-4.561E-02	 3.641E-01	 1.303E+00	 1.718E-02	 8.378E-01	-2.985E-01	-2.255E-01	 5.741E+00	-3.117E+00	 5.729E+00	-7.481E-02	 6.414E+01	 1.497E+01	 6.140E+00	 5.390E+00	 3.990E+00	 2.590E+00	 5.753E-02	 1.162E-01	 1.585E-01	 1.735E-01	 3.513E+01	 1.863E+01	 1.234E+01	 9.826E+00	 1.560E+01	 2.385E+01	 3.306E+01	 4.266E+01	 1.298E+00	 1.842E+00	 1.267E+00	 1.031E+00	 7.647E-01	 3.555E-01	 1.013E-01	 5.716E-02	 0.000E+00	 0.000E+00	 0.000E+00	 0.000E+00
   12.0500	 9.526E+00	-5.500E+00	 0.000E+00	 3.173E+02	-5.529E-03	-9.718E-03	 1.578E-03	-7.828E-03	-2.508E-02	 1.073E-01	-2.195E-01	-2.945E-01	 6.326E+00	 7.243E-01	 1.812E+03	 3.376E-02	 9.277E-02	-2.969E-02	-8.086E-02	 2.524E-01	 1.035E-02	-1.097E-01	 5.959E-01	-1.596E-01	-1.797E-01	 4.465E+00	-4.912E+00	 5.666E+00	-5.249E-02	 6.414E+01	 1.501E+01	 6.140E+00	 5.390E+00	 3.990E+00	 2.590E+00	 5.163E-02	 1.083E-01	 1.510E-01	 1.722E-01	 3.723E+01	 1.965E+01	 1.293E+01	 1.016E+01	 1.505E+01	 2.316E+01	 3.233E+01	 4.190E+01	 1.148E+00	 1.304E+00	 1.148E+00	 1.034E+00	 7.494E-01	 3.074E-01	 9.880E-02	 6.633E-02	 0.000E+00	 0.000E+00	 0.000E+00	 0.000E+00