
Linearized model: Predictions were generated on 23-Oct-2019 at 13:43:00 using OpenFAST, compiled as a 64-bit application using double precision at commit v2.1.0-221-gb79532c4
 linked with  NWTC Subroutine Library; ElastoDyn; BeamDyn

Description from the FAST input file: Fixed-free beam test case

Simulation information:
   Simulation time:                     0.0000 s
   Rotor Speed:                         0.0000 rad/s
   Azimuth:                             0.0000 rad
   Wind Speed:                          0.0000 m/s
   Number of continuous states:        96
   Number of discrete states:           0
   Number of constraint states:         0
   Number of inputs:                  138
   Number of outputs:                 207
   Jacobians included in this file?   Yes

Order of continuous states:
   Row/Column Operating Point                                          Rotating Frame? Derivative Order Description
   ---------- ---------------                                          --------------- ---------------- -----------
          1    0.000000000E+000                                               T               2         finite element node 2 (number of elements = 1; element order = 8) translational displacement in X, m
          2   -1.772120205E-032                                               T               2         finite element node 2 (number of elements = 1; element order = 8) translational displacement in Y, m
          3    0.000000000E+000                                               T               2         finite element node 2 (number of elements = 1; element order = 8) translational displacement in Z, m
          4    0.000000000E+000                                               T               2         finite element node 2 (number of elements = 1; element order = 8) rotational displacement in X, rad
          5    0.000000000E+000                                               T               2         finite element node 2 (number of elements = 1; element order = 8) rotational displacement in Y, rad
          6    0.000000000E+000                                               T               2         finite element node 2 (number of elements = 1; element order = 8) rotational displacement in Z, rad
          7    0.000000000E+000                                               T               2         finite element node 3 (number of elements = 1; element order = 8) translational displacement in X, m
          8   -1.869474632E-031                                               T               2         finite element node 3 (number of elements = 1; element order = 8) translational displacement in Y, m
          9    0.000000000E+000                                               T               2         finite element node 3 (number of elements = 1; element order = 8) translational displacement in Z, m
         10    0.000000000E+000                                               T               2         finite element node 3 (number of elements = 1; element order = 8) rotational displacement in X, rad
         11    0.000000000E+000                                               T               2         finite element node 3 (number of elements = 1; element order = 8) rotational displacement in Y, rad
         12    0.000000000E+000                                               T               2         finite element node 3 (number of elements = 1; element order = 8) rotational displacement in Z, rad
         13    0.000000000E+000                                               T               2         finite element node 4 (number of elements = 1; element order = 8) translational displacement in X, m
         14    3.572511960E-031                                               T               2         finite element node 4 (number of elements = 1; element order = 8) translational displacement in Y, m
         15    0.000000000E+000                                               T               2         finite element node 4 (number of elements = 1; element order = 8) translational displacement in Z, m
         16    0.000000000E+000                                               T               2         finite element node 4 (number of elements = 1; element order = 8) rotational displacement in X, rad
         17    0.000000000E+000                                               T               2         finite element node 4 (number of elements = 1; element order = 8) rotational displacement in Y, rad
         18    0.000000000E+000                                               T               2         finite element node 4 (number of elements = 1; element order = 8) rotational displacement in Z, rad
         19    0.000000000E+000                                               T               2         finite element node 5 (number of elements = 1; element order = 8) translational displacement in X, m
         20    2.958228395E-031                                               T               2         finite element node 5 (number of elements = 1; element order = 8) translational displacement in Y, m
         21    0.000000000E+000                                               T               2         finite element node 5 (number of elements = 1; element order = 8) translational displacement in Z, m
         22    0.000000000E+000                                               T               2         finite element node 5 (number of elements = 1; element order = 8) rotational displacement in X, rad
         23    0.000000000E+000                                               T               2         finite element node 5 (number of elements = 1; element order = 8) rotational displacement in Y, rad
         24    0.000000000E+000                                               T               2         finite element node 5 (number of elements = 1; element order = 8) rotational displacement in Z, rad
         25    0.000000000E+000                                               T               2         finite element node 6 (number of elements = 1; element order = 8) translational displacement in X, m
         26   -5.258993878E-031                                               T               2         finite element node 6 (number of elements = 1; element order = 8) translational displacement in Y, m
         27    0.000000000E+000                                               T               2         finite element node 6 (number of elements = 1; element order = 8) translational displacement in Z, m
         28    0.000000000E+000                                               T               2         finite element node 6 (number of elements = 1; element order = 8) rotational displacement in X, rad
         29    0.000000000E+000                                               T               2         finite element node 6 (number of elements = 1; element order = 8) rotational displacement in Y, rad
         30    0.000000000E+000                                               T               2         finite element node 6 (number of elements = 1; element order = 8) rotational displacement in Z, rad
         31    0.000000000E+000                                               T               2         finite element node 7 (number of elements = 1; element order = 8) translational displacement in X, m
         32    6.566386694E-031                                               T               2         finite element node 7 (number of elements = 1; element order = 8) translational displacement in Y, m
         33    0.000000000E+000                                               T               2         finite element node 7 (number of elements = 1; element order = 8) translational displacement in Z, m
         34    0.000000000E+000                                               T               2         finite element node 7 (number of elements = 1; element order = 8) rotational displacement in X, rad
         35    0.000000000E+000                                               T               2         finite element node 7 (number of elements = 1; element order = 8) rotational displacement in Y, rad
         36    0.000000000E+000                                               T               2         finite element node 7 (number of elements = 1; element order = 8) rotational displacement in Z, rad
         37    0.000000000E+000                                               T               2         finite element node 8 (number of elements = 1; element order = 8) translational displacement in X, m
         38    2.149364284E-031                                               T               2         finite element node 8 (number of elements = 1; element order = 8) translational displacement in Y, m
         39    0.000000000E+000                                               T               2         finite element node 8 (number of elements = 1; element order = 8) translational displacement in Z, m
         40    0.000000000E+000                                               T               2         finite element node 8 (number of elements = 1; element order = 8) rotational displacement in X, rad
         41    0.000000000E+000                                               T               2         finite element node 8 (number of elements = 1; element order = 8) rotational displacement in Y, rad
         42    0.000000000E+000                                               T               2         finite element node 8 (number of elements = 1; element order = 8) rotational displacement in Z, rad
         43    0.000000000E+000                                               T               2         finite element node 9 (number of elements = 1; element order = 8) translational displacement in X, m
         44    1.136597639E-030                                               T               2         finite element node 9 (number of elements = 1; element order = 8) translational displacement in Y, m
         45    0.000000000E+000                                               T               2         finite element node 9 (number of elements = 1; element order = 8) translational displacement in Z, m
         46    0.000000000E+000                                               T               2         finite element node 9 (number of elements = 1; element order = 8) rotational displacement in X, rad
         47    0.000000000E+000                                               T               2         finite element node 9 (number of elements = 1; element order = 8) rotational displacement in Y, rad
         48    0.000000000E+000                                               T               2         finite element node 9 (number of elements = 1; element order = 8) rotational displacement in Z, rad
         49    0.000000000E+000                                               T               2         First time derivative of finite element node 2 (number of elements = 1; element order = 8) translational displacement in X, m/s
         50    0.000000000E+000                                               T               2         First time derivative of finite element node 2 (number of elements = 1; element order = 8) translational displacement in Y, m/s
         51    0.000000000E+000                                               T               2         First time derivative of finite element node 2 (number of elements = 1; element order = 8) translational displacement in Z, m/s
         52    0.000000000E+000                                               T               2         First time derivative of finite element node 2 (number of elements = 1; element order = 8) rotational displacement in X, rad/s
         53    0.000000000E+000                                               T               2         First time derivative of finite element node 2 (number of elements = 1; element order = 8) rotational displacement in Y, rad/s
         54    0.000000000E+000                                               T               2         First time derivative of finite element node 2 (number of elements = 1; element order = 8) rotational displacement in Z, rad/s
         55    0.000000000E+000                                               T               2         First time derivative of finite element node 3 (number of elements = 1; element order = 8) translational displacement in X, m/s
         56    0.000000000E+000                                               T               2         First time derivative of finite element node 3 (number of elements = 1; element order = 8) translational displacement in Y, m/s
         57    0.000000000E+000                                               T               2         First time derivative of finite element node 3 (number of elements = 1; element order = 8) translational displacement in Z, m/s
         58    0.000000000E+000                                               T               2         First time derivative of finite element node 3 (number of elements = 1; element order = 8) rotational displacement in X, rad/s
         59    0.000000000E+000                                               T               2         First time derivative of finite element node 3 (number of elements = 1; element order = 8) rotational displacement in Y, rad/s
         60    0.000000000E+000                                               T               2         First time derivative of finite element node 3 (number of elements = 1; element order = 8) rotational displacement in Z, rad/s
         61    0.000000000E+000                                               T               2         First time derivative of finite element node 4 (number of elements = 1; element order = 8) translational displacement in X, m/s
         62    0.000000000E+000                                               T               2         First time derivative of finite element node 4 (number of elements = 1; element order = 8) translational displacement in Y, m/s
         63    0.000000000E+000                                               T               2         First time derivative of finite element node 4 (number of elements = 1; element order = 8) translational displacement in Z, m/s
         64    0.000000000E+000                                               T               2         First time derivative of finite element node 4 (number of elements = 1; element order = 8) rotational displacement in X, rad/s
         65    0.000000000E+000                                               T               2         First time derivative of finite element node 4 (number of elements = 1; element order = 8) rotational displacement in Y, rad/s
         66    0.000000000E+000                                               T               2         First time derivative of finite element node 4 (number of elements = 1; element order = 8) rotational displacement in Z, rad/s
         67    0.000000000E+000                                               T               2         First time derivative of finite element node 5 (number of elements = 1; element order = 8) translational displacement in X, m/s
         68    0.000000000E+000                                               T               2         First time derivative of finite element node 5 (number of elements = 1; element order = 8) translational displacement in Y, m/s
         69    0.000000000E+000                                               T               2         First time derivative of finite element node 5 (number of elements = 1; element order = 8) translational displacement in Z, m/s
         70    0.000000000E+000                                               T               2         First time derivative of finite element node 5 (number of elements = 1; element order = 8) rotational displacement in X, rad/s
         71    0.000000000E+000                                               T               2         First time derivative of finite element node 5 (number of elements = 1; element order = 8) rotational displacement in Y, rad/s
         72    0.000000000E+000                                               T               2         First time derivative of finite element node 5 (number of elements = 1; element order = 8) rotational displacement in Z, rad/s
         73    0.000000000E+000                                               T               2         First time derivative of finite element node 6 (number of elements = 1; element order = 8) translational displacement in X, m/s
         74    0.000000000E+000                                               T               2         First time derivative of finite element node 6 (number of elements = 1; element order = 8) translational displacement in Y, m/s
         75    0.000000000E+000                                               T               2         First time derivative of finite element node 6 (number of elements = 1; element order = 8) translational displacement in Z, m/s
         76    0.000000000E+000                                               T               2         First time derivative of finite element node 6 (number of elements = 1; element order = 8) rotational displacement in X, rad/s
         77    0.000000000E+000                                               T               2         First time derivative of finite element node 6 (number of elements = 1; element order = 8) rotational displacement in Y, rad/s
         78    0.000000000E+000                                               T               2         First time derivative of finite element node 6 (number of elements = 1; element order = 8) rotational displacement in Z, rad/s
         79    0.000000000E+000                                               T               2         First time derivative of finite element node 7 (number of elements = 1; element order = 8) translational displacement in X, m/s
         80    0.000000000E+000                                               T               2         First time derivative of finite element node 7 (number of elements = 1; element order = 8) translational displacement in Y, m/s
         81    0.000000000E+000                                               T               2         First time derivative of finite element node 7 (number of elements = 1; element order = 8) translational displacement in Z, m/s
         82    0.000000000E+000                                               T               2         First time derivative of finite element node 7 (number of elements = 1; element order = 8) rotational displacement in X, rad/s
         83    0.000000000E+000                                               T               2         First time derivative of finite element node 7 (number of elements = 1; element order = 8) rotational displacement in Y, rad/s
         84    0.000000000E+000                                               T               2         First time derivative of finite element node 7 (number of elements = 1; element order = 8) rotational displacement in Z, rad/s
         85    0.000000000E+000                                               T               2         First time derivative of finite element node 8 (number of elements = 1; element order = 8) translational displacement in X, m/s
         86    0.000000000E+000                                               T               2         First time derivative of finite element node 8 (number of elements = 1; element order = 8) translational displacement in Y, m/s
         87    0.000000000E+000                                               T               2         First time derivative of finite element node 8 (number of elements = 1; element order = 8) translational displacement in Z, m/s
         88    0.000000000E+000                                               T               2         First time derivative of finite element node 8 (number of elements = 1; element order = 8) rotational displacement in X, rad/s
         89    0.000000000E+000                                               T               2         First time derivative of finite element node 8 (number of elements = 1; element order = 8) rotational displacement in Y, rad/s
         90    0.000000000E+000                                               T               2         First time derivative of finite element node 8 (number of elements = 1; element order = 8) rotational displacement in Z, rad/s
         91    0.000000000E+000                                               T               2         First time derivative of finite element node 9 (number of elements = 1; element order = 8) translational displacement in X, m/s
         92    0.000000000E+000                                               T               2         First time derivative of finite element node 9 (number of elements = 1; element order = 8) translational displacement in Y, m/s
         93    0.000000000E+000                                               T               2         First time derivative of finite element node 9 (number of elements = 1; element order = 8) translational displacement in Z, m/s
         94    0.000000000E+000                                               T               2         First time derivative of finite element node 9 (number of elements = 1; element order = 8) rotational displacement in X, rad/s
         95    0.000000000E+000                                               T               2         First time derivative of finite element node 9 (number of elements = 1; element order = 8) rotational displacement in Y, rad/s
         96    0.000000000E+000                                               T               2         First time derivative of finite element node 9 (number of elements = 1; element order = 8) rotational displacement in Z, rad/s

Order of continuous state derivatives:
   Row/Column Operating Point                                          Rotating Frame? Derivative Order Description
   ---------- ---------------                                          --------------- ---------------- -----------
          1    0.000000000E+000                                               T               2         First time derivative of finite element node 2 (number of elements = 1; element order = 8) translational displacement in X, m/s
          2    0.000000000E+000                                               T               2         First time derivative of finite element node 2 (number of elements = 1; element order = 8) translational displacement in Y, m/s
          3    0.000000000E+000                                               T               2         First time derivative of finite element node 2 (number of elements = 1; element order = 8) translational displacement in Z, m/s
          4    0.000000000E+000                                               T               2         First time derivative of finite element node 2 (number of elements = 1; element order = 8) rotational displacement in X, rad/s
          5    0.000000000E+000                                               T               2         First time derivative of finite element node 2 (number of elements = 1; element order = 8) rotational displacement in Y, rad/s
          6    0.000000000E+000                                               T               2         First time derivative of finite element node 2 (number of elements = 1; element order = 8) rotational displacement in Z, rad/s
          7    0.000000000E+000                                               T               2         First time derivative of finite element node 3 (number of elements = 1; element order = 8) translational displacement in X, m/s
          8    0.000000000E+000                                               T               2         First time derivative of finite element node 3 (number of elements = 1; element order = 8) translational displacement in Y, m/s
          9    0.000000000E+000                                               T               2         First time derivative of finite element node 3 (number of elements = 1; element order = 8) translational displacement in Z, m/s
         10    0.000000000E+000                                               T               2         First time derivative of finite element node 3 (number of elements = 1; element order = 8) rotational displacement in X, rad/s
         11    0.000000000E+000                                               T               2         First time derivative of finite element node 3 (number of elements = 1; element order = 8) rotational displacement in Y, rad/s
         12    0.000000000E+000                                               T               2         First time derivative of finite element node 3 (number of elements = 1; element order = 8) rotational displacement in Z, rad/s
         13    0.000000000E+000                                               T               2         First time derivative of finite element node 4 (number of elements = 1; element order = 8) translational displacement in X, m/s
         14    0.000000000E+000                                               T               2         First time derivative of finite element node 4 (number of elements = 1; element order = 8) translational displacement in Y, m/s
         15    0.000000000E+000                                               T               2         First time derivative of finite element node 4 (number of elements = 1; element order = 8) translational displacement in Z, m/s
         16    0.000000000E+000                                               T               2         First time derivative of finite element node 4 (number of elements = 1; element order = 8) rotational displacement in X, rad/s
         17    0.000000000E+000                                               T               2         First time derivative of finite element node 4 (number of elements = 1; element order = 8) rotational displacement in Y, rad/s
         18    0.000000000E+000                                               T               2         First time derivative of finite element node 4 (number of elements = 1; element order = 8) rotational displacement in Z, rad/s
         19    0.000000000E+000                                               T               2         First time derivative of finite element node 5 (number of elements = 1; element order = 8) translational displacement in X, m/s
         20    0.000000000E+000                                               T               2         First time derivative of finite element node 5 (number of elements = 1; element order = 8) translational displacement in Y, m/s
         21    0.000000000E+000                                               T               2         First time derivative of finite element node 5 (number of elements = 1; element order = 8) translational displacement in Z, m/s
         22    0.000000000E+000                                               T               2         First time derivative of finite element node 5 (number of elements = 1; element order = 8) rotational displacement in X, rad/s
         23    0.000000000E+000                                               T               2         First time derivative of finite element node 5 (number of elements = 1; element order = 8) rotational displacement in Y, rad/s
         24    0.000000000E+000                                               T               2         First time derivative of finite element node 5 (number of elements = 1; element order = 8) rotational displacement in Z, rad/s
         25    0.000000000E+000                                               T               2         First time derivative of finite element node 6 (number of elements = 1; element order = 8) translational displacement in X, m/s
         26    0.000000000E+000                                               T               2         First time derivative of finite element node 6 (number of elements = 1; element order = 8) translational displacement in Y, m/s
         27    0.000000000E+000                                               T               2         First time derivative of finite element node 6 (number of elements = 1; element order = 8) translational displacement in Z, m/s
         28    0.000000000E+000                                               T               2         First time derivative of finite element node 6 (number of elements = 1; element order = 8) rotational displacement in X, rad/s
         29    0.000000000E+000                                               T               2         First time derivative of finite element node 6 (number of elements = 1; element order = 8) rotational displacement in Y, rad/s
         30    0.000000000E+000                                               T               2         First time derivative of finite element node 6 (number of elements = 1; element order = 8) rotational displacement in Z, rad/s
         31    0.000000000E+000                                               T               2         First time derivative of finite element node 7 (number of elements = 1; element order = 8) translational displacement in X, m/s
         32    0.000000000E+000                                               T               2         First time derivative of finite element node 7 (number of elements = 1; element order = 8) translational displacement in Y, m/s
         33    0.000000000E+000                                               T               2         First time derivative of finite element node 7 (number of elements = 1; element order = 8) translational displacement in Z, m/s